# vtk DataFile Version 3.0
vtk output
ASCII
DATASET POLYDATA
POINTS 14443 float
0.185936 0.719968 -0.0407571
0.196322 0.724906 -0.0407207
0.186064 0.709972 -0.0401098
0.196437 0.71491 -0.0400675
0.206781 0.719834 -0.0400735
0.217095 0.724763 -0.0401382
0.258146 0.7246 -0.0401672
0.31892 0.724373 -0.0403544
0.175965 0.725022 -0.039751
0.237752 0.724655 -0.0398724
0.278456 0.724519 -0.0400417
0.298647 0.724445 -0.0400488
0.165693 0.720084 -0.039177
0.186195 0.699986 -0.0394984
0.196563 0.704917 -0.0394308
0.206892 0.709844 -0.0394004
0.217193 0.714778 -0.0394799
0.227491 0.719713 -0.0396328
0.248028 0.719639 -0.0396809
0.258203 0.714612 -0.0395316
0.278498 0.714529 -0.0393849
0.29868 0.714457 -0.0393865
0.318934 0.714388 -0.0396831
0.268347 0.719566 -0.039763
0.288572 0.719485 -0.0396937
0.308758 0.719419 -0.0397569
0.155257 0.725142 -0.0390535
0.227565 0.709725 -0.0389778
0.176093 0.715035 -0.0391608
0.237828 0.714672 -0.0392342
0.248089 0.709653 -0.0390383
0.318964 0.704395 -0.0390256
0.268394 0.709574 -0.0391158
0.288608 0.709495 -0.0390397
0.308791 0.709429 -0.0390949
0.165829 0.710098 -0.0385565
0.186315 0.689993 -0.0388147
0.196675 0.69493 -0.0387563
0.206999 0.69986 -0.0387387
0.176196 0.705039 -0.0385618
0.217287 0.704791 -0.038861
0.237892 0.704683 -0.0386292
0.258259 0.704622 -0.0389017
0.278537 0.704539 -0.0387413
0.298711 0.704467 -0.0387365
0.144952 0.720197 -0.0381611
0.155414 0.715156 -0.0384547
0.217366 0.6948 -0.038246
0.227644 0.699741 -0.0383469
0.248141 0.699673 -0.0384395
0.258303 0.69463 -0.038271
0.318975 0.69441 -0.0383653
0.268435 0.699588 -0.0384789
0.288635 0.69951 -0.038388
0.30881 0.699444 -0.0384461
0.328839 0.729316 -0.0406761
0.389526 0.729175 -0.0407985
0.409616 0.729149 -0.040707
0.338984 0.724319 -0.0403921
0.359187 0.724249 -0.0403011
0.379483 0.72421 -0.0405357
0.399573 0.72418 -0.040404
0.349099 0.72928 -0.0406629
0.369257 0.729216 -0.0406774
0.328911 0.719345 -0.0400411
0.379498 0.714227 -0.0398649
0.34913 0.719299 -0.0399903
0.369278 0.719237 -0.0399996
0.389535 0.719204 -0.0401183
0.409613 0.719178 -0.0400271
0.389547 0.70922 -0.0394565
0.339048 0.714337 -0.0397486
0.359229 0.71427 -0.0396371
0.399579 0.714203 -0.0397302
0.328989 0.709363 -0.0394077
0.33909 0.704345 -0.0390974
0.379519 0.704246 -0.039208
0.399589 0.704216 -0.039076
0.349184 0.709311 -0.0393375
0.369311 0.709257 -0.0393404
0.409613 0.709199 -0.0393617
0.329033 0.699379 -0.0387658
0.349214 0.699323 -0.0386709
0.369332 0.699272 -0.0386724
0.389558 0.699242 -0.0387912
0.409616 0.699216 -0.0387001
0.359273 0.704288 -0.0389822
0.339136 0.694366 -0.0384408
0.359286 0.694304 -0.038309
0.379525 0.694268 -0.0385476
0.399583 0.694238 -0.0384132
0.429767 0.729125 -0.0407523
0.449851 0.729116 -0.0407892
0.469937 0.729115 -0.0407203
0.490018 0.729121 -0.0407355
0.419685 0.724157 -0.0404153
0.439795 0.724138 -0.0405183
0.459879 0.724134 -0.0404082
0.479957 0.724136 -0.0403854
0.429757 0.719155 -0.0400812
0.449828 0.719146 -0.0401177
0.469903 0.719145 -0.0400552
0.489973 0.71915 -0.0400793
0.44982 0.709163 -0.0394676
0.489954 0.709166 -0.0394385
0.419687 0.714179 -0.0397543
0.439782 0.714162 -0.0398581
0.459852 0.714158 -0.0397537
0.479918 0.714159 -0.0397397
0.419695 0.704192 -0.0391074
0.439777 0.704177 -0.0392115
0.459841 0.704172 -0.0391103
0.479902 0.704173 -0.039101
0.42975 0.709177 -0.0394347
0.46987 0.709166 -0.0394149
0.429745 0.699195 -0.0387768
0.449797 0.699186 -0.0388094
0.469853 0.699184 -0.0387593
0.489906 0.699187 -0.0387978
0.419701 0.694216 -0.0384417
0.439764 0.694201 -0.0385402
0.459814 0.694196 -0.0384498
0.479861 0.694197 -0.0384453
0.499988 0.724144 -0.0404493
0.509981 0.729121 -0.0407351
0.530062 0.729115 -0.0407198
0.550149 0.729116 -0.0407886
0.570233 0.729125 -0.0407516
0.520043 0.724136 -0.0403847
0.54012 0.724134 -0.0404075
0.560204 0.724137 -0.0405177
0.580315 0.724157 -0.0404147
0.510026 0.71915 -0.040079
0.530097 0.719145 -0.0400548
0.550171 0.719146 -0.0401172
0.570243 0.719155 -0.0400808
0.510046 0.709166 -0.0394477
0.55018 0.709163 -0.0394774
0.500018 0.714166 -0.0398215
0.520081 0.714159 -0.0397456
0.540147 0.714157 -0.0397609
0.560218 0.714162 -0.0398652
0.580312 0.714178 -0.0397636
0.500041 0.704181 -0.0391959
0.520099 0.704174 -0.0391144
0.540158 0.704173 -0.039127
0.560223 0.704177 -0.0392264
0.580304 0.704192 -0.0391273
0.53013 0.709166 -0.0394251
0.57025 0.709177 -0.0394475
0.510095 0.699188 -0.0388099
0.530147 0.699184 -0.0387732
0.550204 0.699186 -0.038822
0.570255 0.699195 -0.0387927
0.500095 0.694204 -0.0385495
0.520139 0.694197 -0.0384572
0.540185 0.694197 -0.0384652
0.560237 0.694202 -0.0385532
0.580299 0.694216 -0.0384594
0.590383 0.729149 -0.0407057
0.610474 0.729175 -0.0407975
0.67116 0.729317 -0.0406697
0.600426 0.72418 -0.0404028
0.620516 0.72421 -0.0405348
0.640813 0.724249 -0.0403008
0.630743 0.729216 -0.0406771
0.6509 0.72928 -0.0406631
0.661015 0.72432 -0.0403921
0.620502 0.714227 -0.0398643
0.590387 0.719178 -0.0400257
0.610464 0.719204 -0.0401172
0.630722 0.719237 -0.0399987
0.650869 0.719299 -0.0399902
0.671087 0.719346 -0.0400338
0.610452 0.70922 -0.0394558
0.60042 0.714203 -0.0397293
0.640771 0.71427 -0.0396368
0.660951 0.714338 -0.0397484
0.60041 0.704216 -0.0390751
0.62048 0.704246 -0.0392075
0.660909 0.704345 -0.0390972
0.590386 0.709199 -0.0393605
0.630688 0.709257 -0.0393398
0.650816 0.709311 -0.0393374
0.67101 0.709364 -0.0394043
0.590384 0.699216 -0.0386989
0.610441 0.699242 -0.0387905
0.630668 0.699272 -0.0386718
0.650785 0.699323 -0.0386708
0.640727 0.704288 -0.0389821
0.670967 0.69938 -0.0387646
0.600417 0.694238 -0.0384122
0.620474 0.694268 -0.038547
0.640713 0.694304 -0.038309
0.660863 0.694367 -0.0384405
0.814064 0.719969 -0.0407585
0.803677 0.724906 -0.0407211
0.681079 0.724373 -0.0403487
0.741858 0.7246 -0.0401766
0.813936 0.709972 -0.0401112
0.803563 0.714911 -0.040068
0.793219 0.719835 -0.0400739
0.782905 0.724764 -0.0401385
0.701353 0.724446 -0.0400455
0.721543 0.72452 -0.0400399
0.762248 0.724655 -0.0398725
0.824034 0.725022 -0.0397519
0.681065 0.714389 -0.0396788
0.701319 0.714457 -0.0393839
0.721501 0.71453 -0.0393837
0.741797 0.714613 -0.0395312
0.691241 0.719419 -0.0397523
0.711427 0.719486 -0.0396911
0.731652 0.719566 -0.0397618
0.751972 0.71964 -0.039681
0.813805 0.699986 -0.0394999
0.803437 0.704918 -0.0394313
0.793108 0.709844 -0.0394008
0.782807 0.714778 -0.0394803
0.772509 0.719714 -0.0396332
0.834307 0.720084 -0.039178
0.681036 0.704396 -0.0390246
0.691209 0.709429 -0.0390928
0.711392 0.709496 -0.0390386
0.731605 0.709575 -0.0391154
0.75191 0.709653 -0.0390384
0.762172 0.714672 -0.0392343
0.772435 0.709725 -0.0389782
0.823906 0.715035 -0.0391618
0.844743 0.725142 -0.0390546
0.701288 0.704468 -0.038736
0.721463 0.704539 -0.0387411
0.74174 0.704622 -0.0389017
0.762108 0.704683 -0.0386294
0.803325 0.69493 -0.0387569
0.813685 0.689993 -0.0388162
0.793001 0.69986 -0.0387393
0.782712 0.704791 -0.0388615
0.823803 0.705039 -0.0385627
0.834171 0.710098 -0.0385575
0.681024 0.694411 -0.0383644
0.741696 0.69463 -0.038271
0.69119 0.699445 -0.0384454
0.711365 0.699511 -0.0383877
0.731565 0.699588 -0.0384789
0.751859 0.699673 -0.0384397
0.782634 0.6948 -0.0382466
0.772355 0.699742 -0.0383473
0.844586 0.715157 -0.0384558
0.855048 0.720197 -0.0381623
0.13343 0.815257 -0.0428342
0.133577 0.805269 -0.0421957
0.122975 0.820344 -0.0419787
0.133734 0.795265 -0.0415562
0.123162 0.810348 -0.0412938
0.133896 0.785262 -0.0408769
0.123341 0.800359 -0.0405973
0.134009 0.775271 -0.0402886
0.134057 0.765263 -0.0399058
0.123527 0.790352 -0.0398932
0.134119 0.755262 -0.0394852
0.123703 0.780355 -0.0392439
0.134188 0.745256 -0.039053
0.123789 0.770348 -0.0388565
0.134343 0.735257 -0.0384617
0.123822 0.760339 -0.03858
0.113562 0.815367 -0.0384145
0.133262 0.825256 -0.0434725
0.113421 0.825351 -0.0389793
0.122777 0.830343 -0.0426327
0.133077 0.835251 -0.0441262
0.11321 0.835334 -0.0396634
0.122581 0.840337 -0.043241
0.13289 0.845239 -0.0447329
0.113 0.845318 -0.0403262
0.122398 0.850331 -0.0438244
0.132722 0.855222 -0.0453096
0.112804 0.8553 -0.0409979
0.122242 0.860321 -0.0443672
0.132604 0.865211 -0.0458416
0.112668 0.865281 -0.0415471
0.122125 0.870306 -0.0448692
0.132517 0.875193 -0.0463274
0.122053 0.880287 -0.0453602
0.132415 0.885173 -0.0468767
0.121936 0.890261 -0.0459238
0.132286 0.895145 -0.0474696
0.121794 0.900236 -0.0465031
0.132145 0.905126 -0.0480594
0.112207 0.905175 -0.0436814
0.11233 0.895204 -0.043159
0.112449 0.885236 -0.0426167
0.112557 0.875262 -0.0420685
0.102302 0.90029 -0.0410405
0.102465 0.890315 -0.0404476
0.10262 0.880342 -0.0398524
0.10279 0.870356 -0.0392582
0.102951 0.860366 -0.0387028
0.0925549 0.905355 -0.0382264
0.123857 0.750338 -0.0383073
0.103092 0.850378 -0.0381681
0.121635 0.910215 -0.0470879
0.142558 0.910025 -0.0493432
0.102156 0.910261 -0.0415659
0.112081 0.91514 -0.0441764
0.131993 0.915106 -0.048664
0.0924056 0.915326 -0.0387467
0.121449 0.920199 -0.0477027
0.142389 0.920003 -0.0499829
0.101971 0.92022 -0.0421163
0.111941 0.9251 -0.0446814
0.131796 0.925087 -0.0493248
0.0921304 0.92529 -0.0394352
0.10175 0.930182 -0.0426772
0.111774 0.935089 -0.0452053
0.0918969 0.935273 -0.0400429
0.101604 0.940169 -0.0431999
0.111634 0.945079 -0.0457522
0.101472 0.950155 -0.0437567
0.0914289 0.965219 -0.041816
0.0915463 0.955234 -0.0412581
0.11151 0.955066 -0.0463401
0.101334 0.960137 -0.0443473
0.111369 0.965042 -0.0469788
0.101216 0.970112 -0.0449044
0.0917068 0.945254 -0.0406373
0.121165 0.930182 -0.0484661
0.142153 0.929982 -0.0507386
0.131544 0.935053 -0.0500622
0.12102 0.940144 -0.049034
0.142025 0.939943 -0.0513741
0.120888 0.950108 -0.0495892
0.120754 0.960068 -0.0501746
0.120645 0.970047 -0.0507399
0.131312 0.94501 -0.0508796
0.141811 0.949908 -0.0522439
0.131165 0.954979 -0.0515864
0.131047 0.964961 -0.0522063
0.141671 0.959885 -0.0529607
0.141576 0.969868 -0.053589
0.0913154 0.975205 -0.0423247
0.101115 0.980093 -0.0454625
0.111226 0.975021 -0.0475917
0.0912194 0.985191 -0.0428493
0.111092 0.985001 -0.0482032
[...]
POINT_DATA 14443
VECTORS alpha float
2.10123e-06 -1.47718e-08 8.7466e-08
-1.50074e-07 1.86699e-05 -1.22709e-06
2.05315e-06 -1.4034e-08 8.65756e-08
-1.48321e-07 1.87195e-05 -1.24189e-06
2.18045e-06 -1.37925e-08 7.15754e-08
-9.74246e-08 1.75353e-05 -1.18389e-06
-5.69543e-08 1.39546e-05 -9.57791e-07
-1.93977e-08 9.19773e-06 -6.49289e-07
-1.73751e-07 1.88446e-05 -1.20832e-06
-4.97609e-08 1.5833e-05 -1.05291e-06
-2.55353e-08 1.21572e-05 -8.32529e-07
-9.01283e-09 1.05658e-05 -7.19827e-07
1.99105e-06 -1.32356e-08 -7.01632e-09
2.00479e-06 -1.33464e-08 8.80026e-08
-1.3911e-07 1.87656e-05 -1.26968e-06
2.13078e-06 -1.31857e-08 7.17472e-08
-8.83697e-08 1.75799e-05 -1.17872e-06
2.25658e-06 -1.25251e-08 4.38471e-08
2.32075e-06 -1.06576e-08 1.94324e-08
-4.94264e-08 1.39932e-05 -9.57515e-07
-2.19881e-08 1.21933e-05 -8.30561e-07
-7.3359e-09 1.05981e-05 -7.18041e-07
-1.42465e-08 9.22536e-06 -6.48473e-07
2.37671e-06 -9.82929e-09 1.93269e-08
2.43351e-06 -8.31322e-09 5.63284e-09
2.48931e-06 -7.14652e-09 -1.06984e-09
-1.7778e-07 1.78714e-05 -1.13797e-06
2.2053e-06 -1.20531e-08 4.25405e-08
-1.61519e-07 1.88931e-05 -1.23162e-06
-4.09136e-08 1.58742e-05 -1.05301e-06
2.26783e-06 -1.02031e-08 2.06284e-08
-1.07958e-08 9.25266e-06 -6.49133e-07
2.32256e-06 -9.40826e-09 1.9803e-08
2.37829e-06 -8.06747e-09 6.69987e-09
2.43289e-06 -6.9501e-09 9.23565e-11
1.94641e-06 -1.27166e-08 -5.62397e-09
1.95925e-06 -1.27105e-08 8.52604e-08
-1.29738e-07 1.88106e-05 -1.28104e-06
2.08035e-06 -1.26624e-08 6.91651e-08
-1.52675e-07 1.89409e-05 -1.23385e-06
-7.70559e-08 1.76223e-05 -1.18069e-06
-3.46627e-08 1.59152e-05 -1.05575e-06
-3.99868e-08 1.40294e-05 -9.59405e-07
-1.36919e-08 1.22261e-05 -8.32033e-07
-1.36006e-09 1.06275e-05 -7.19832e-07
1.90333e-06 -1.24282e-08 -6.7423e-08
-1.67719e-07 1.7918e-05 -1.16957e-06
-7.19582e-08 1.76661e-05 -1.18603e-06
2.1522e-06 -1.15363e-08 4.19748e-08
2.2119e-06 -9.61103e-09 2.31319e-08
-3.58693e-08 1.40671e-05 -9.63985e-07
-6.05504e-09 9.27865e-06 -6.51657e-07
2.26761e-06 -9.00166e-09 2.13329e-08
2.32245e-06 -7.76704e-09 8.06767e-09
2.37611e-06 -6.69118e-09 1.47759e-09
2.61308e-06 -7.23293e-09 9.81135e-09
2.72828e-06 -4.03527e-09 1.73134e-08
2.75827e-06 -3.14455e-09 7.42888e-09
1.5133e-09 8.01032e-06 -5.67054e-07
6.25532e-09 6.93871e-06 -4.9275e-07
-4.15141e-09 5.92316e-06 -4.21133e-07
-3.18888e-09 4.93245e-06 -3.51077e-07
2.64681e-06 -5.62646e-09 6.37611e-09
2.68316e-06 -4.52629e-09 1.87743e-09
2.54846e-06 -6.64402e-09 1.21629e-08
-4.57532e-09 5.94249e-06 -4.20876e-07
2.58291e-06 -5.31851e-09 7.27893e-09
2.61843e-06 -4.2739e-09 2.46291e-09
2.66115e-06 -3.91892e-09 1.71187e-08
2.69038e-06 -3.12265e-09 6.95677e-09
2.59894e-06 -3.78142e-09 1.68211e-08
2.39095e-09 8.03485e-06 -5.69196e-07
6.45651e-09 6.96015e-06 -4.94578e-07
-2.95678e-09 4.94802e-06 -3.5244e-07
2.48804e-06 -6.18328e-09 1.45118e-08
3.52506e-09 8.05898e-06 -5.70452e-07
-3.63156e-09 5.95986e-06 -4.23389e-07
-2.38895e-09 4.96329e-06 -3.53201e-07
2.52178e-06 -5.13016e-09 8.95794e-09
2.55649e-06 -4.09184e-09 3.67683e-09
2.62648e-06 -3.0888e-09 6.62753e-09
2.42895e-06 -5.64872e-09 1.51316e-08
2.46274e-06 -4.94311e-09 9.83471e-09
2.49666e-06 -3.86964e-09 4.10704e-09
2.53703e-06 -3.65025e-09 1.6824e-08
2.56474e-06 -2.91212e-09 6.13175e-09
7.86744e-09 6.98026e-06 -4.97035e-07
3.797e-09 8.08247e-06 -5.73267e-07
7.70446e-09 7.00179e-06 -4.97807e-07
-3.38286e-09 5.97767e-06 -4.24973e-07
-2.05161e-09 4.97823e-06 -3.55066e-07
2.78357e-06 -7.98802e-10 5.46831e-09
2.80387e-06 -5.7319e-10 1.55066e-08
2.81582e-06 3.2785e-10 3.71099e-09
2.82173e-06 1.22778e-09 -8.15217e-09
4.04494e-10 3.94735e-06 -2.82581e-07
8.50105e-11 2.96153e-06 -2.12953e-07
-5.60268e-11 1.97416e-06 -1.41817e-07
-8.82498e-11 9.86845e-07 -7.09124e-08
2.71491e-06 -7.51752e-10 5.71626e-09
2.73463e-06 -5.59512e-10 1.4454e-08
2.74634e-06 2.31025e-10 2.56707e-09
2.75218e-06 1.02214e-09 -9.35757e-09
2.67016e-06 -5.76539e-10 1.36183e-08
2.68729e-06 9.29638e-10 -9.8668e-09
1.14567e-09 3.95976e-06 -2.83894e-07
3.19215e-10 2.9708e-06 -2.13688e-07
1.37991e-10 1.98036e-06 -1.42283e-07
2.79644e-11 9.8995e-07 -7.11288e-08
1.54853e-09 3.97198e-06 -2.84028e-07
4.44185e-10 2.97995e-06 -2.13646e-07
3.46629e-10 1.98648e-06 -1.4224e-07
1.95019e-10 9.9302e-07 -7.10985e-08
2.65002e-06 -8.02533e-10 6.02694e-09
2.68065e-06 9.23583e-11 1.38005e-09
2.58788e-06 -8.33867e-10 6.5635e-09
2.60652e-06 -5.98154e-10 1.26344e-08
2.61772e-06 9.84757e-11 9.43112e-10
2.62337e-06 7.93876e-10 -1.11816e-08
1.69197e-09 3.98404e-06 -2.84988e-07
5.07923e-10 2.98899e-06 -2.14412e-07
4.38751e-10 1.99251e-06 -1.42788e-07
2.78256e-10 9.96044e-07 -7.13636e-08
-1.27157e-13 8.9028e-11 -6.40709e-12
2.82176e-06 -1.22786e-09 8.18291e-09
2.81586e-06 -3.33811e-10 -3.69266e-09
2.80391e-06 5.61516e-10 -1.54984e-08
2.78361e-06 7.8193e-10 -5.46803e-09
-8.27459e-11 -9.86662e-07 7.08868e-08
-4.2384e-11 -1.97398e-06 1.41774e-07
1.09481e-10 -2.96136e-06 2.12889e-07
4.36677e-10 -3.9472e-06 2.82497e-07
2.7522e-06 -1.02544e-09 9.37779e-09
2.74636e-06 -2.40598e-10 -2.55766e-09
2.73466e-06 5.43818e-10 -1.44534e-08
2.71493e-06 7.30467e-10 -5.7229e-09
2.68723e-06 -9.76709e-10 9.90568e-09
2.6701e-06 5.31242e-10 -1.38439e-08
1.20641e-15 9.05571e-11 -6.52141e-12
3.62311e-11 -9.89752e-07 7.11913e-08
1.64653e-10 -1.98014e-06 1.42431e-07
3.86314e-10 -2.97057e-06 2.13942e-07
1.24943e-09 -3.95952e-06 2.84289e-07
-1.63237e-14 9.20646e-11 -6.61451e-12
1.75581e-10 -9.92821e-07 7.1249e-08
3.44078e-10 -1.98625e-06 1.42544e-07
5.60859e-10 -2.97972e-06 2.14239e-07
1.74893e-09 -3.97176e-06 2.84914e-07
2.68061e-06 -1.2217e-10 -1.67343e-09
2.65002e-06 7.69444e-10 -6.617e-09
2.62326e-06 -8.53361e-10 1.11313e-08
2.61765e-06 -1.23721e-10 -1.37996e-09
2.60641e-06 5.53596e-10 -1.28754e-08
2.58786e-06 8.17747e-10 -7.20849e-09
-2.75226e-14 9.32086e-11 -6.69639e-12
2.56209e-10 -9.95857e-07 7.14816e-08
4.31423e-10 -1.99231e-06 1.4302e-07
5.90532e-10 -2.9888e-06 2.14932e-07
1.84712e-09 -3.98386e-06 2.85771e-07
2.75834e-06 3.10423e-09 -7.48077e-09
2.72836e-06 4.0091e-09 -1.73528e-08
2.61321e-06 7.23087e-09 -1.01614e-08
-3.19078e-09 -4.93228e-06 3.51091e-07
-4.12941e-09 -5.923e-06 4.2115e-07
6.30922e-09 -6.93853e-06 4.92726e-07
2.68322e-06 4.51316e-09 -1.90122e-09
2.64687e-06 5.63342e-09 -6.41657e-09
1.60622e-09 -8.01014e-06 5.67061e-07
-4.56246e-09 -5.94233e-06 4.20952e-07
2.69044e-06 3.08262e-09 -7.01243e-09
2.6612e-06 3.89259e-09 -1.71614e-08
2.61847e-06 4.26096e-09 -2.51075e-09
2.58295e-06 5.32552e-09 -7.3401e-09
2.54857e-06 6.6452e-09 -1.25517e-08
2.59898e-06 3.76265e-09 -1.68661e-08
-2.95455e-09 -4.94783e-06 3.5251e-07
6.48352e-09 -6.95998e-06 4.94608e-07
2.43963e-09 -8.0347e-06 5.6924e-07
-2.385e-09 -4.96312e-06 3.53224e-07
-3.62679e-09 -5.9597e-06 4.23425e-07
3.53626e-09 -8.05879e-06 5.70481e-07
2.62652e-06 3.06042e-09 -6.70234e-09
2.55652e-06 4.0823e-09 -3.70528e-09
2.52181e-06 5.13746e-09 -8.97524e-09
2.48812e-06 6.17801e-09 -1.46923e-08
2.56477e-06 2.89161e-09 -6.22566e-09
2.53706e-06 3.63739e-09 -1.68782e-08
2.49668e-06 3.8641e-09 -4.13149e-09
2.46275e-06 4.95294e-09 -9.83584e-09
7.87393e-09 -6.98007e-06 4.97028e-07
2.42899e-06 5.64022e-09 -1.52047e-08
-2.0461e-09 -4.97806e-06 3.55079e-07
-3.37611e-09 -5.9775e-06 4.24994e-07
7.71404e-09 -7.0016e-06 4.97777e-07
3.8122e-09 -8.08229e-06 5.7327e-07
2.10129e-06 1.47673e-08 -8.7475e-08
-1.50014e-07 -1.86698e-05 1.22701e-06
-1.946e-08 -9.19758e-06 6.49799e-07
-5.77802e-08 -1.39545e-05 9.5809e-07
2.05321e-06 1.40285e-08 -8.65849e-08
-1.48251e-07 -1.87194e-05 1.24178e-06
2.18051e-06 1.37912e-08 -7.1587e-08
-9.73544e-08 -1.75352e-05 1.18381e-06
-9.03819e-09 -1.05657e-05 7.20215e-07
-2.5511e-08 -1.2157e-05 8.32768e-07
-4.96843e-08 -1.58329e-05 1.05281e-06
-1.73657e-07 -1.88444e-05 1.20839e-06
-1.4282e-08 -9.22521e-06 6.48785e-07
-7.34779e-09 -1.0598e-05 7.18275e-07
-2.19686e-08 -1.21932e-05 8.30702e-07
-4.93648e-08 -1.3993e-05 9.57544e-07
2.4894e-06 7.1405e-09 7.81345e-10
2.43359e-06 8.30001e-09 -5.83915e-09
2.37678e-06 9.80863e-09 -1.9465e-08
2.3208e-06 1.06488e-08 -1.94457e-08
2.00485e-06 1.33409e-08 -8.80114e-08
-1.39025e-07 -1.87655e-05 1.26954e-06
2.13083e-06 1.31843e-08 -7.17579e-08
-8.82889e-08 -1.75797e-05 1.1786e-06
2.25663e-06 1.25235e-08 -4.38629e-08
1.99111e-06 1.32324e-08 7.00175e-09
-1.07767e-08 -9.25251e-06 6.49065e-07
2.43296e-06 6.94e-09 -2.27436e-10
2.37835e-06 8.05264e-09 -6.79878e-09
2.32262e-06 9.38866e-09 -1.9872e-08
2.26788e-06 1.01937e-08 -2.06405e-08
-4.08274e-08 -1.58741e-05 1.05288e-06
2.20535e-06 1.20514e-08 -4.25552e-08
-1.6139e-07 -1.88929e-05 1.23165e-06
-1.77701e-07 -1.78712e-05 1.138e-06
-1.33969e-09 -1.06273e-05 7.19782e-07
-1.3671e-08 -1.2226e-05 8.32015e-07
-3.99668e-08 -1.40293e-05 9.5944e-07
-3.45657e-08 -1.59151e-05 1.05559e-06
-1.29631e-07 -1.88105e-05 1.28086e-06
1.95929e-06 1.27048e-08 -8.52675e-08
2.0804e-06 1.2661e-08 -6.91749e-08
-7.69622e-08 -1.76222e-05 1.18054e-06
-1.52521e-07 -1.89407e-05 1.23385e-06
1.94648e-06 1.27132e-08 5.60784e-09
-6.03205e-09 -9.27849e-06 6.51586e-07
-3.58431e-08 -1.4067e-05 9.64e-07
2.37616e-06 6.67892e-09 -1.53146e-09
2.32249e-06 7.75117e-09 -8.10691e-09
2.26765e-06 8.98225e-09 -2.136e-08
2.21194e-06 9.60128e-09 -2.31433e-08
-7.18439e-08 -1.7666e-05 1.18585e-06
2.15224e-06 1.15346e-08 -4.19887e-08
-1.67608e-07 -1.79179e-05 1.16956e-06
1.9034e-06 1.2424e-08 6.74175e-08
-1.69178e-07 1.56136e-05 -1.01155e-06
-1.53691e-07 1.56667e-05 -9.95779e-07
2.27845e-06 -1.57072e-08 -2.66573e-07
-1.53002e-07 1.57209e-05 -1.00232e-06
2.21844e-06 -1.53046e-08 -2.59224e-07
-1.5903e-07 1.57728e-05 -1.00755e-06
2.16044e-06 -1.49236e-08 -2.53087e-07
-1.67628e-07 1.58217e-05 -1.00759e-06
-1.71302e-07 1.58707e-05 -1.03854e-06
2.08063e-06 -1.42366e-08 -2.44417e-07
-1.80941e-07 1.59187e-05 -1.0691e-06
2.03447e-06 -1.38205e-08 -2.37916e-07
-1.83868e-07 1.59661e-05 -1.08179e-06
1.99662e-06 -1.33455e-08 -2.17033e-07
-1.94357e-07 1.60141e-05 -1.05069e-06
1.95888e-06 -1.2796e-08 -1.90941e-07
-1.77467e-07 1.40824e-05 -8.43043e-07
-1.91682e-07 1.55576e-05 -1.03144e-06
-1.70995e-07 1.40298e-05 -8.65327e-07
2.32603e-06 -1.61175e-08 -2.72863e-07
-2.07707e-07 1.54997e-05 -1.04244e-06
-1.78157e-07 1.39752e-05 -8.9046e-07
2.38846e-06 -1.66822e-08 -2.83077e-07
-1.66051e-07 1.54396e-05 -1.0103e-06
-1.34801e-07 1.39179e-05 -8.64736e-07
2.45149e-06 -1.74583e-08 -2.95235e-07
-1.37213e-07 1.53782e-05 -9.71843e-07
-1.13265e-07 1.38595e-05 -8.34207e-07
2.51651e-06 -1.80942e-08 -3.0873e-07
-1.17878e-07 1.53152e-05 -9.46312e-07
-1.02963e-07 1.38007e-05 -8.04066e-07
2.56833e-06 -1.86411e-08 -3.19612e-07
-1.02198e-07 1.52495e-05 -9.35152e-07
2.6258e-06 -1.88799e-08 -3.33914e-07
-1.12429e-07 1.51878e-05 -9.23164e-07
2.68102e-06 -1.89549e-08 -3.46669e-07
-1.38844e-07 1.51269e-05 -9.43687e-07
2.73718e-06 -1.90894e-08 -3.59796e-07
-1.62297e-07 1.50616e-05 -9.75318e-07
-1.60729e-07 1.35646e-05 -8.30854e-07
-1.37322e-07 1.36237e-05 -8.18095e-07
-1.17545e-07 1.36823e-05 -8.06074e-07
-1.03758e-07 1.37407e-05 -8.01672e-07
2.50642e-06 -1.59049e-08 -5.81628e-07
2.45371e-06 -1.55408e-08 -5.62975e-07
2.39945e-06 -1.51739e-08 -5.46467e-07
2.34258e-06 -1.47211e-08 -5.30137e-07
2.29442e-06 -1.42264e-08 -5.13978e-07
-1.60698e-07 1.43319e-05 -8.28268e-07
1.92399e-06 -1.22959e-08 -1.66233e-07
2.23744e-06 -1.36951e-08 -4.93422e-07
2.7953e-06 -1.93632e-08 -3.724e-07
2.9831e-06 -2.24299e-08 -2.1459e-07
2.55997e-06 -1.64179e-08 -5.99875e-07
-1.69505e-07 1.35025e-05 -8.48027e-07
-1.79878e-07 1.49927e-05 -1.02376e-06
-1.33744e-07 1.42627e-05 -8.51182e-07
2.93573e-06 -2.03308e-08 -3.95222e-07
3.13791e-06 -2.3554e-08 -2.28071e-07
2.68275e-06 -1.73514e-08 -6.33405e-07
-1.59534e-07 1.34344e-05 -8.5731e-07
-1.76359e-07 1.49169e-05 -1.06095e-06
-1.26465e-07 1.41928e-05 -8.3752e-07
2.74736e-06 -1.80111e-08 -6.53276e-07
-1.23536e-07 1.33641e-05 -8.38225e-07
-8.98061e-08 1.41212e-05 -8.116e-07
2.81325e-06 -1.78958e-08 -6.77515e-07
-8.23122e-08 1.32894e-05 -8.10828e-07
2.88181e-06 -1.77346e-08 -6.97509e-07
-7.95603e-08 1.38974e-05 -8.26539e-07
-6.33541e-08 1.39732e-05 -7.93775e-07
-7.02152e-08 1.32132e-05 -8.01421e-07
2.95534e-06 -1.76281e-08 -7.20106e-07
-8.50131e-08 1.31368e-05 -8.18088e-07
3.02987e-06 -1.74976e-08 -7.45627e-07
-6.46027e-08 1.40482e-05 -7.83131e-07
3.01272e-06 -2.0751e-08 -4.0024e-07
3.2186e-06 -2.41188e-08 -2.30629e-07
-1.38829e-07 1.48436e-05 -1.06738e-06
3.08741e-06 -2.05915e-08 -4.17639e-07
3.29905e-06 -2.41715e-08 -2.42403e-07
3.16529e-06 -2.00188e-08 -4.26789e-07
3.24861e-06 -1.95101e-08 -4.41474e-07
3.33136e-06 -1.90228e-08 -4.59058e-07
-1.12504e-07 1.4773e-05 -1.0634e-06
3.39222e-06 -2.35506e-08 -2.26168e-07
-1.18785e-07 1.47025e-05 -1.06427e-06
-1.19709e-07 1.46309e-05 -1.06701e-06
3.48343e-06 -2.30166e-08 -2.2882e-07
3.57173e-06 -2.25788e-08 -2.39998e-07
-7.80319e-08 1.38193e-05 -8.41247e-07
3.10914e-06 -1.76248e-08 -7.74116e-07
-9.24037e-08 1.30595e-05 -8.27527e-07
-7.18161e-08 1.37392e-05 -8.45803e-07
-8.98484e-08 1.2981e-05 -8.34538e-07
-7.00946e-08 1.3659e-05 -8.42714e-07
3.19676e-06 -1.82704e-08 -8.02572e-07
-8.64934e-08 1.29023e-05 -8.32625e-07
2.88905e-06 -1.60259e-08 -1.05665e-06
3.42015e-06 -1.87417e-08 -4.77357e-07
-1.36996e-07 1.45586e-05 -1.08373e-06
3.66629e-06 -2.23661e-08 -2.52057e-07
3.51766e-06 -1.81159e-08 -4.96507e-07
-1.5211e-07 1.4486e-05 -1.09391e-06
-1.48963e-07 1.44137e-05 -1.07526e-06
3.77047e-06 -2.17721e-08 -2.65138e-07
2.80623e-06 -1.6154e-08 -1.02538e-06
2.73186e-06 -1.58263e-08 -9.91756e-07
2.97626e-06 -1.5179e-08 -1.08968e-06
-7.58158e-08 1.35761e-05 -8.63299e-07
3.05842e-06 -1.38004e-08 -1.13158e-06
-3.444e-08 1.34896e-05 -8.3172e-07
3.15325e-06 -1.36331e-08 -1.17771e-06
-6.68918e-09 1.34006e-05 -7.87509e-07
3.24699e-06 -1.2782e-08 -1.22779e-06
3.35336e-06 -1.20513e-08 -1.28713e-06
-4.62961e-09 1.33087e-05 -7.65899e-07
3.2973e-06 -1.79641e-08 -8.28971e-07
3.62676e-06 -1.70176e-08 -5.15496e-07
3.88583e-06 -2.07978e-08 -2.77021e-07
3.51436e-06 -1.46471e-08 -8.90525e-07
3.62684e-06 -1.16798e-08 -9.33934e-07
3.75616e-06 -8.40827e-09 -9.8347e-07
3.40063e-06 -1.66987e-08 -8.53306e-07
-1.04674e-07 1.28235e-05 -8.86948e-07
-1.46252e-07 1.43368e-05 -1.09535e-06
3.75191e-06 -1.50632e-08 -5.16537e-07
4.01263e-06 -1.84786e-08 -2.75385e-07
-1.1337e-07 1.27427e-05 -9.10152e-07
-7.61336e-08 1.26616e-05 -8.71845e-07
-7.72682e-08 1.25751e-05 -8.67888e-07
-1.37157e-07 1.42533e-05 -1.11165e-06
3.90454e-06 -1.3469e-08 -5.10561e-07
4.16976e-06 -1.71805e-08 -2.72427e-07
4.0526e-06 -1.19756e-08 -5.19984e-07
4.2172e-06 -1.06463e-08 -5.45932e-07
-1.09558e-07 1.41639e-05 -1.11897e-06
4.3295e-06 -1.58765e-08 -2.7576e-07
-1.18522e-07 1.40687e-05 -1.13843e-06
4.51029e-06 -1.49945e-08 -2.99721e-07
-1.26535e-08 1.3198e-05 -8.30382e-07
-1.82928e-07 1.91611e-05 -1.1417e-06
3.50726e-06 -1.13085e-08 -1.36055e-06
-3.21815e-08 1.308e-05 -8.6391e-07
-1.49883e-07 1.86077e-05 -1.18434e-06
-1.37413e-07 1.9028e-05 -1.1197e-06
-1.25033e-07 1.87533e-05 -1.15111e-06
-1.24141e-07 1.88941e-05 -1.12819e-06
3.63271e-06 -8.86393e-09 -1.40926e-06
-2.26851e-08 1.29605e-05 -8.56761e-07
3.73502e-06 -4.37806e-09 -1.45466e-06
3.83191e-06 5.24805e-12 -1.51132e-06
-3.21899e-08 1.28376e-05 -8.64144e-07
-5.96997e-08 1.27149e-05 -8.84407e-07
3.93947e-06 -6.36116e-09 -1.05241e-06
4.08736e-06 -4.58905e-09 -1.10069e-06
4.21458e-06 -7.27598e-10 -1.13713e-06
4.33333e-06 3.41948e-09 -1.19041e-06
-6.2676e-08 1.24823e-05 -8.4124e-07
-8.37313e-08 1.39661e-05 -1.10648e-06
4.44645e-06 -1.05017e-08 -5.8404e-07
4.76796e-06 -1.55373e-08 -3.21917e-07
-5.10446e-08 1.23746e-05 -8.30714e-07
-5.76746e-08 1.38527e-05 -1.0951e-06
-2.79922e-08 1.22547e-05 -8.36638e-07
-2.78674e-08 1.21274e-05 -8.53101e-07
-3.96141e-08 1.19942e-05 -8.8329e-07
4.60828e-06 -8.00326e-09 -6.44326e-07
4.97267e-06 -1.30639e-08 -3.50642e-07
4.76641e-06 -4.35539e-09 -6.67361e-07
4.92017e-06 -1.19512e-09 -7.016e-07
-3.51684e-08 1.3742e-05 -1.06184e-06
5.14135e-06 -8.74519e-09 -3.76202e-07
-3.77501e-08 1.3625e-05 -1.05482e-06
-5.00318e-08 1.3489e-05 -1.07488e-06
5.32403e-06 -4.84192e-09 -3.99658e-07
1.95042e-06 -1.28302e-08 -6.65629e-08
2.15451e-06 -1.54699e-08 8.81193e-08
2.04132e-06 -1.38427e-08 -5.63154e-09
1.99394e-06 -1.32849e-08 -7.08354e-08
2.03606e-06 -1.37265e-08 -8.41484e-08
2.12896e-06 -1.4822e-08 -1.05252e-07
2.08221e-06 -1.43014e-08 -9.11111e-08
-1.53973e-07 1.87907e-05 -1.22213e-06
-1.65032e-07 1.78216e-05 -1.12234e-06
2.20813e-06 -1.60802e-08 9.35899e-08
2.09278e-06 -1.4339e-08 -1.35715e-09
-1.43706e-07 1.87379e-05 -1.23398e-06
-1.50603e-07 1.77692e-05 -1.1609e-06
2.26057e-06 -1.6767e-08 1.00143e-07
2.14554e-06 -1.48286e-08 -3.0884e-10
-1.48288e-07 1.77201e-05 -1.17244e-06
-1.23977e-07 1.86833e-05 -1.22447e-06
-1.06181e-07 1.76656e-05 -1.1403e-06
2.31286e-06 -1.73973e-08 1.12437e-07
2.19721e-06 -1.53667e-08 4.92243e-09
-1.08611e-07 1.86294e-05 -1.20254e-06
2.2515e-06 -1.58427e-08 7.45927e-09
2.36965e-06 -1.81371e-08 1.22753e-07
2.23487e-06 -1.44472e-08 7.47728e-08
2.31206e-06 -1.29271e-08 4.49102e-08
-1.33885e-07 1.86192e-05 -1.22855e-06
-7.83343e-08 1.74851e-05 -1.18697e-06
2.2889e-06 -1.49416e-08 7.80734e-08
2.36655e-06 -1.31599e-08 4.77065e-08
-1.21679e-07 1.85668e-05 -1.2304e-06
-7.00432e-08 1.74356e-05 -1.17634e-06
2.34078e-06 -1.55001e-08 8.16123e-08
2.41727e-06 -1.34701e-08 5.2491e-08
-1.07407e-07 1.8514e-05 -1.23531e-06
-9.98793e-08 1.84609e-05 -1.23162e-06
-5.88388e-08 1.73869e-05 -1.16537e-06
2.39401e-06 -1.60802e-08 8.77632e-08
2.47053e-06 -1.37195e-08 5.49945e-08
-4.85484e-08 1.7336e-05 -1.15015e-06
2.4518e-06 -1.66967e-08 9.48053e-08
2.52752e-06 -1.41842e-08 5.88607e-08
2.36189e-06 -1.70699e-08 -1.3357e-07
2.30249e-06 -1.66462e-08 -1.29753e-07
2.21989e-06 -1.58789e-08 -1.24201e-07
2.1719e-06 -1.5446e-08 -1.20628e-07
-8.00321e-08 1.76128e-05 -1.10295e-06
-8.312e-08 1.8572e-05 -1.17557e-06
2.30266e-06 -1.61868e-08 1.39131e-08
2.42478e-06 -1.88475e-08 1.3466e-07
-6.40686e-08 1.75583e-05 -1.09807e-06
-7.20534e-08 1.85165e-05 -1.17459e-06
2.35417e-06 -1.66604e-08 1.48025e-08
2.48187e-06 -1.9338e-08 1.47633e-07
-1.11554e-07 1.73889e-05 -1.12493e-06
-8.4857e-08 1.74446e-05 -1.09537e-06
-6.46968e-08 1.75007e-05 -1.09845e-06
-7.46652e-08 1.84612e-05 -1.19792e-06
2.44352e-06 -1.74749e-08 1.67717e-08
2.57886e-06 -2.03549e-08 1.59352e-07
-6.71151e-08 1.84023e-05 -1.1785e-06
2.506e-06 -1.80979e-08 1.65985e-08
2.64671e-06 -2.11145e-08 1.65733e-07
-7.11645e-08 1.83445e-05 -1.19013e-06
-8.63315e-08 1.84062e-05 -1.2102e-06
-3.34899e-08 1.7282e-05 -1.13486e-06
2.5044e-06 -1.73317e-08 1.02012e-07
2.58246e-06 -1.47022e-08 6.345e-08
-7.24395e-08 1.83505e-05 -1.19495e-06
-2.22781e-08 1.72285e-05 -1.13123e-06
2.56025e-06 -1.7899e-08 1.09006e-07
2.63948e-06 -1.51412e-08 6.79717e-08
-7.15849e-08 1.82936e-05 -1.20115e-06
-7.83541e-08 1.82362e-05 -1.20198e-06
-8.68975e-08 1.81798e-05 -1.20533e-06
-2.11532e-08 1.71742e-05 -1.13904e-06
2.65957e-06 -1.89326e-08 1.16474e-07
2.74028e-06 -1.61075e-08 7.15622e-08
-2.85967e-08 1.71187e-05 -1.13891e-06
2.72991e-06 -1.96372e-08 1.17134e-07
2.81228e-06 -1.66166e-08 7.2731e-08
-3.42983e-08 1.70643e-05 -1.13268e-06
2.37993e-06 -1.11338e-08 1.81143e-08
2.43615e-06 -1.02544e-08 1.98604e-08
-4.08232e-08 1.57882e-05 -1.0551e-06
-4.38775e-08 1.39117e-05 -9.61169e-07
2.43932e-06 -1.15301e-08 1.8148e-08
2.49529e-06 -1.05845e-08 2.19152e-08
-2.034e-08 1.56963e-05 -1.05931e-06
-9.21353e-09 1.56488e-05 -1.05268e-06
-3.97635e-08 1.38705e-05 -9.66702e-07
-3.1079e-08 1.57408e-05 -1.06447e-06
2.4925e-06 -1.18521e-08 1.97936e-08
2.54728e-06 -1.08812e-08 2.49503e-08
-3.07085e-08 1.38284e-05 -9.7174e-07
2.54692e-06 -1.19948e-08 2.13067e-08
2.6044e-06 -1.11519e-08 2.75834e-08
-2.56263e-08 1.37853e-05 -9.76888e-07
2.60565e-06 -1.21837e-08 2.33095e-08
2.66581e-06 -1.15295e-08 3.0588e-08
2.49371e-06 -8.56118e-09 6.16727e-09
2.55008e-06 -7.31403e-09 -5.09226e-10
-1.56062e-08 9.16826e-06 -6.52332e-07
-1.91036e-08 1.21199e-05 -8.36552e-07
-3.13385e-09 1.05326e-05 -7.23762e-07
-1.1281e-08 1.20811e-05 -8.43437e-07
-8.6073e-09 1.20448e-05 -8.44347e-07
-5.78896e-09 1.20059e-05 -8.45807e-07
2.5532e-06 -8.60631e-09 8.6347e-09
2.60987e-06 -7.27896e-09 1.91588e-09
-9.30517e-09 9.13715e-06 -6.57185e-07