# vtk DataFile Version 3.0
vtk output
ASCII
DATASET POLYDATA
POINTS 12120 float
0.18722 0.609954 -0.0349925
0.187303 0.599958 -0.0343551
0.197597 0.604891 -0.0341655
0.207866 0.609828 -0.0340682
0.187395 0.589957 -0.0336794
0.228392 0.609738 -0.0335917
0.197672 0.594893 -0.0335122
0.207932 0.599835 -0.0334282
0.218164 0.604783 -0.033477
0.248796 0.609685 -0.0335131
0.258868 0.604677 -0.033245
0.268957 0.609626 -0.0334286
0.289073 0.609553 -0.0332881
0.309133 0.609497 -0.0333195
0.319325 0.604477 -0.0333197
0.329366 0.609443 -0.0335541
0.349414 0.609407 -0.0334488
0.369493 0.609347 -0.0334429
0.379807 0.604346 -0.0333298
0.389817 0.609325 -0.033564
0.409832 0.609308 -0.033442
0.429865 0.609281 -0.0334033
0.449918 0.609235 -0.0334611
0.469941 0.609238 -0.0334136
0.489968 0.609243 -0.0334597
0.499979 0.604259 -0.0331913
0.187484 0.579955 -0.0330009
0.197746 0.584893 -0.0328423
0.16723 0.610059 -0.0329821
0.218214 0.594792 -0.0328394
0.228434 0.599754 -0.0329457
0.24882 0.599703 -0.0328548
0.23863 0.604708 -0.0331604
0.27904 0.604601 -0.0330106
0.32937 0.599462 -0.0328949
0.299105 0.604534 -0.0329645
0.339393 0.604437 -0.0331613
0.359455 0.604392 -0.0330828
0.389809 0.599341 -0.0329078
0.399815 0.604326 -0.0331649
0.419825 0.604311 -0.0330875
0.43989 0.604243 -0.0331967
0.459911 0.604244 -0.033103
0.479934 0.604248 -0.0331057
0.812779 0.609954 -0.0349929
0.812696 0.599957 -0.0343556
0.802403 0.60489 -0.0341658
0.792134 0.609828 -0.0340683
0.771608 0.609737 -0.0335916
0.812605 0.589957 -0.0336801
0.510031 0.609243 -0.0334638
0.530058 0.609238 -0.0334173
0.550082 0.609235 -0.0334653
0.570135 0.609281 -0.0334053
0.620193 0.604346 -0.0333312
0.590168 0.609308 -0.0334436
0.610183 0.609324 -0.0335656
0.630506 0.609346 -0.0334422
0.680675 0.604476 -0.0333201
0.650586 0.609407 -0.0334492
0.670633 0.609443 -0.0335544
0.690867 0.609497 -0.0333199
0.710927 0.609552 -0.0332883
0.741132 0.604676 -0.0332451
0.731043 0.609626 -0.0334287
0.751204 0.609685 -0.0335131
0.781835 0.604783 -0.0334771
0.792068 0.599835 -0.0334285
0.802328 0.594893 -0.0335127
0.520066 0.604248 -0.0331092
0.540088 0.604244 -0.0331066
0.560109 0.604243 -0.0332014
0.610191 0.599341 -0.0329072
0.580175 0.60431 -0.033089
0.600185 0.604326 -0.0331661
0.640545 0.604392 -0.0330834
0.67063 0.599461 -0.0328955
0.660607 0.604436 -0.0331618
0.700895 0.604533 -0.0329649
0.72096 0.6046 -0.0330108
0.75118 0.599702 -0.0328552
0.761369 0.604707 -0.0331605
0.771565 0.599753 -0.0329458
0.781786 0.594792 -0.0328397
0.812515 0.579955 -0.0330018
0.802254 0.584893 -0.032843
0.83277 0.610059 -0.0329821
0.1255 0.680222 -0.0348036
0.125633 0.670244 -0.0341953
0.125751 0.660269 -0.0336128
0.125868 0.650294 -0.0330232
0.197518 0.61488 -0.0348116
0.177437 0.614988 -0.0334232
0.187137 0.619939 -0.035597
0.167126 0.620045 -0.0335962
0.197445 0.624865 -0.0354251
0.177348 0.624971 -0.0340363
0.135647 0.685121 -0.0359865
0.187058 0.629924 -0.0362099
0.167024 0.630028 -0.0341978
0.135763 0.675144 -0.0353629
0.135881 0.665165 -0.0347579
0.135994 0.655193 -0.0341595
0.197378 0.634844 -0.0360344
0.177259 0.63495 -0.0346437
0.186988 0.639903 -0.0367852
0.197318 0.644822 -0.0366478
0.177176 0.644926 -0.0352237
0.145936 0.680055 -0.036353
0.146054 0.67008 -0.0357126
0.146163 0.660103 -0.0351057
0.186911 0.649879 -0.0373738
0.197249 0.6548 -0.0372838
0.186821 0.65986 -0.0380167
0.156159 0.684958 -0.0371617
0.156271 0.67499 -0.0365105
0.197173 0.664776 -0.0379404
0.186721 0.669842 -0.0386678
0.19709 0.674758 -0.0385994
0.18662 0.679814 -0.0393338
0.196999 0.684721 -0.0392949
0.176831 0.684825 -0.0376629
0.176904 0.674856 -0.0370625
0.166526 0.679916 -0.0371625
0.176998 0.664883 -0.0364468
0.166643 0.669945 -0.0365379
0.166726 0.659965 -0.0359748
0.156377 0.665016 -0.035878
0.177095 0.654901 -0.0358414
0.166836 0.649981 -0.0353738
0.156509 0.655032 -0.0352412
0.166938 0.640006 -0.0348
0.156617 0.645056 -0.0347123
0.146296 0.650116 -0.0345141
0.156702 0.635076 -0.0341322
0.146394 0.64014 -0.033954
0.156808 0.625096 -0.0335477
0.136099 0.645211 -0.0335966
0.146506 0.630162 -0.0333867
0.156922 0.615111 -0.0329472
0.14661 0.620173 -0.0328011
0.136218 0.635226 -0.0330517
0.12536 0.690205 -0.0354269
0.1252 0.700191 -0.0360767
0.12508 0.710153 -0.0366511
0.124959 0.720122 -0.0372325
0.124842 0.730087 -0.0377997
0.124737 0.740074 -0.0383746
0.124626 0.750068 -0.0389673
0.124508 0.760079 -0.0395847
0.115071 0.755065 -0.0364449
0.11519 0.74508 -0.0358019
0.11531 0.735094 -0.0351648
0.105024 0.760158 -0.034854
0.105144 0.750156 -0.0342726
0.115433 0.725112 -0.0345421
0.105246 0.740172 -0.0336882
0.115547 0.715118 -0.0339519
0.115669 0.705121 -0.033373
0.105351 0.73019 -0.0331089
0.11579 0.695129 -0.0328314
0.145814 0.690029 -0.0370058
0.166418 0.689883 -0.0378334
0.186503 0.689782 -0.040026
0.13551 0.695102 -0.0366507
0.15604 0.694929 -0.0378405
0.196902 0.694688 -0.0399971
0.176721 0.694792 -0.0383286
0.135354 0.705068 -0.0373051
0.135245 0.715032 -0.0379076
0.135146 0.725005 -0.0385005
0.135045 0.734991 -0.0390979
0.134947 0.744981 -0.0397083
0.134844 0.754979 -0.0403349
0.145678 0.700006 -0.0376954
0.166307 0.699852 -0.0385304
0.186387 0.699757 -0.040742
0.155932 0.704902 -0.0385082
0.176611 0.704763 -0.0390455
0.196814 0.704667 -0.0406999
0.14558 0.709966 -0.0383214
0.166232 0.709813 -0.0391714
0.186302 0.70973 -0.0414068
0.155849 0.714869 -0.0391513
0.176545 0.714727 -0.0396983
0.196751 0.714643 -0.0413736
0.145484 0.719937 -0.0389551
0.145395 0.729918 -0.039566
0.145308 0.739903 -0.0401909
0.14522 0.749896 -0.0408303
0.145102 0.759894 -0.0415099
0.16616 0.719782 -0.0398235
0.186223 0.719711 -0.0420782
0.15577 0.724842 -0.0397928
0.176486 0.724698 -0.0403553
0.196693 0.724623 -0.0420482
0.186152 0.729694 -0.0427563
0.15569 0.734829 -0.0404369
0.155614 0.744819 -0.0410864
0.155534 0.754819 -0.0417476
0.166094 0.729763 -0.0404797
0.17643 0.734685 -0.0410292
0.196638 0.734616 -0.0427334
0.166029 0.739751 -0.0411479
0.186081 0.7397 -0.043442
0.165944 0.749732 -0.041829
0.165876 0.759741 -0.0425084
0.176375 0.744676 -0.0417133
0.196594 0.744623 -0.0433773
0.18601 0.749686 -0.0441553
0.176303 0.754667 -0.0424232
0.196537 0.754619 -0.0441306
0.185932 0.759688 -0.0448896
0.11492 0.765044 -0.0371194
0.124394 0.770076 -0.0401363
0.104869 0.77013 -0.0354626
0.114798 0.775007 -0.0377512
0.0949595 0.775238 -0.0334818
0.124238 0.78006 -0.0408029
0.104724 0.780108 -0.0360682
0.11469 0.78498 -0.0383773
0.104596 0.790078 -0.0367185
0.124077 0.790058 -0.0415252
0.114582 0.794932 -0.039029
0.104479 0.800028 -0.0373574
0.123936 0.800066 -0.0422314
0.0945436 0.805114 -0.0352847
0.114465 0.804902 -0.0397189
0.0943925 0.815116 -0.0359045
0.0942279 0.825096 -0.036563
0.094132 0.835084 -0.0371529
0.104357 0.80997 -0.0380112
0.123767 0.810059 -0.0429821
0.114334 0.814859 -0.0404188
0.104218 0.819935 -0.0387105
0.104089 0.82994 -0.0393332
0.123587 0.820054 -0.0437624
0.114202 0.824832 -0.0410839
0.114097 0.834871 -0.0416859
0.123476 0.830042 -0.0444381
0.0947033 0.795154 -0.0346315
0.0845558 0.830227 -0.0340715
0.0948528 0.785203 -0.0340333
0.084712 0.820301 -0.0334017
0.0950789 0.765252 -0.0329358
0.0848541 0.810358 -0.0327649
0.13473 0.764986 -0.0409757
0.155425 0.76482 -0.0424436
0.176237 0.764688 -0.0431156
0.196468 0.764626 -0.044875
0.144993 0.769887 -0.0421689
0.165792 0.769751 -0.0431783
0.18583 0.769689 -0.0456402
0.134593 0.774976 -0.0416038
0.13447 0.784982 -0.0422718
0.134316 0.794977 -0.0429832
0.134193 0.804997 -0.0437098
0.134032 0.814995 -0.044483
0.133869 0.825002 -0.0452476
0.133785 0.834974 -0.0459182
0.155331 0.774822 -0.0431114
0.176168 0.774698 -0.0437855
0.196392 0.774639 -0.0456001
0.185744 0.779717 -0.0463664
0.14489 0.779895 -0.0428006
0.165711 0.779758 -0.0438574
0.14477 0.789901 -0.0434672
0.144655 0.799915 -0.0441677
0.144513 0.809918 -0.0449105
0.144398 0.819943 -0.0456721
0.1443 0.829932 -0.0463508
0.155238 0.784836 -0.0437724
0.176098 0.784709 -0.0444767
0.196321 0.784663 -0.0462924
0.165612 0.789773 -0.0445542
0.185626 0.789728 -0.0471388
0.15513 0.794844 -0.0444831
0.176005 0.794722 -0.0451795
0.196228 0.79468 -0.0470561
0.155006 0.804859 -0.0452152
0.154898 0.814873 -0.0459592
0.154782 0.824888 -0.0466976
0.15472 0.834879 -0.0473644
0.165519 0.799784 -0.04528
0.185529 0.799752 -0.0478958
0.175933 0.804743 -0.0459158
0.196154 0.804714 -0.0478256
0.16542 0.809795 -0.0460181
0.165315 0.819821 -0.0467641
0.165234 0.829821 -0.0474714
0.185428 0.809776 -0.0486827
0.175835 0.814754 -0.0466617
0.196068 0.814738 -0.0486267
0.185352 0.81981 -0.04941
0.175732 0.82476 -0.0474469
0.17568 0.83477 -0.0481128
0.195977 0.824761 -0.0494189
0.185254 0.829813 -0.050194
0.195921 0.834764 -0.05015
0.0844542 0.840196 -0.0346016
0.103997 0.839942 -0.0398901
0.123346 0.839997 -0.0450873
0.0940469 0.845054 -0.0377035
0.114012 0.844898 -0.0422427
0.0843728 0.850157 -0.0351378
0.103919 0.849944 -0.0404422
0.123255 0.849967 -0.0457214
0.0746373 0.905262 -0.034724
0.0746359 0.8952 -0.0342423
0.0746584 0.885183 -0.0337432
0.0939686 0.855012 -0.0382547
0.113938 0.854924 -0.042791
0.0843124 0.860107 -0.0356805
0.103849 0.859956 -0.0410142
0.123172 0.859949 -0.0463645
0.0841042 0.890044 -0.0374165
0.0841053 0.900088 -0.0378909
0.0840883 0.910187 -0.0383482
0.0842007 0.880043 -0.0368338
0.0842635 0.870069 -0.0362448
0.0939157 0.864988 -0.0388137
0.113878 0.864964 -0.0433644
0.0938756 0.874982 -0.039402
0.0938295 0.885031 -0.0400232
0.0938158 0.895126 -0.0405615
0.0938102 0.905236 -0.0410605
0.103803 0.869972 -0.0415713
0.123061 0.869927 -0.0470331
0.113841 0.874974 -0.0439742
0.103773 0.880007 -0.042148
0.103738 0.890061 -0.0427883
0.10372 0.900144 -0.043332
0.103712 0.910249 -0.0439113
0.123 0.879942 -0.0476868
0.113803 0.884996 -0.0445735
0.113782 0.895073 -0.0452134
0.113744 0.905189 -0.0457718
0.122954 0.889987 -0.0483231
0.122986 0.900021 -0.0488024
0.122986 0.910112 -0.0493493
0.0747134 0.875234 -0.0331853
0.0747538 0.865337 -0.032672
0.14423 0.839891 -0.0470239
0.165182 0.839806 -0.0481024
0.185203 0.839811 -0.0508431
[...]
POINT_DATA 12120
VECTORS alpha float
2.75251e-06 -1.77113e-08 1.47107e-07
2.67845e-06 -1.70288e-08 1.45306e-07
-8.35458e-08 1.80627e-05 -1.20695e-06
2.86522e-06 -1.698e-08 1.04053e-07
2.62474e-06 -1.64123e-08 1.4121e-07
2.96958e-06 -1.44961e-08 5.87743e-08
-8.13736e-08 1.8123e-05 -1.20882e-06
2.78733e-06 -1.6194e-08 1.03662e-07
-3.84844e-08 1.69538e-05 -1.12167e-06
3.06545e-06 -1.2021e-08 1.6617e-08
-1.61028e-08 1.34618e-05 -9.26894e-07
3.14045e-06 -1.19297e-08 3.56057e-08
3.21626e-06 -1.00945e-08 1.16401e-08
3.28623e-06 -7.10526e-09 -3.76015e-09
1.64228e-09 8.83927e-06 -6.21531e-07
3.36997e-06 -6.55385e-09 2.61346e-08
3.42633e-06 -5.60142e-09 9.5498e-09
3.47119e-06 -2.77133e-09 -3.23381e-09
2.80089e-09 5.67752e-06 -3.95052e-07
3.53211e-06 -3.17735e-09 2.90867e-08
3.573e-06 -2.75949e-09 1.42045e-08
3.60615e-06 -1.53963e-09 2.206e-09
3.63353e-06 2.13545e-10 1.73016e-08
3.65078e-06 6.97212e-10 4.10089e-11
3.65997e-06 1.19058e-09 -1.6988e-08
-6.30868e-14 1.41953e-10 -1.01222e-11
2.55503e-06 -1.5689e-08 1.3595e-07
-8.06574e-08 1.81836e-05 -1.20554e-06
2.60466e-06 -1.57887e-08 -4.53702e-09
-3.91547e-08 1.70128e-05 -1.12272e-06
2.88855e-06 -1.37027e-08 5.91603e-08
2.98137e-06 -1.12697e-08 1.84123e-08
-5.11036e-09 1.52919e-05 -1.01334e-06
-7.97406e-10 1.17122e-05 -8.11466e-07
3.28006e-06 -6.37642e-09 2.54832e-08
7.83602e-09 1.01663e-05 -7.01375e-07
4.96995e-09 7.68708e-06 -5.43237e-07
7.26662e-09 6.65218e-06 -4.70451e-07
3.4387e-06 -3.12021e-09 2.80131e-08
1.9734e-09 4.7258e-06 -3.30879e-07
1.06418e-09 3.7809e-06 -2.66119e-07
1.73241e-09 2.83747e-06 -2.03138e-07
8.47199e-10 1.89124e-06 -1.35145e-07
2.67062e-10 9.45363e-07 -6.75142e-08
2.75216e-06 1.77278e-08 -1.47129e-07
2.67824e-06 1.70469e-08 -1.45328e-07
-8.35008e-08 -1.80626e-05 1.20666e-06
2.86485e-06 1.70004e-08 -1.04073e-07
2.9692e-06 1.45208e-08 -5.8793e-08
2.6249e-06 1.64341e-08 -1.41247e-07
3.65992e-06 -1.23868e-09 1.71641e-08
3.65064e-06 -7.28661e-10 -4.88761e-11
3.63332e-06 -2.28399e-10 -1.75028e-08
3.60583e-06 1.50525e-09 -2.09562e-09
2.63361e-09 -5.67744e-06 3.95457e-07
3.57265e-06 2.73969e-09 -1.41798e-08
3.53175e-06 3.17189e-09 -2.91426e-08
3.47075e-06 2.74746e-09 3.2712e-09
1.66376e-09 -8.83913e-06 6.21377e-07
3.42588e-06 5.6062e-09 -9.53002e-09
3.36952e-06 6.55274e-09 -2.61115e-08
3.28579e-06 7.09829e-09 3.78867e-09
3.21583e-06 1.00882e-08 -1.16189e-08
-1.60695e-08 -1.34617e-05 9.26719e-07
3.14004e-06 1.19183e-08 -3.55845e-08
3.06505e-06 1.20136e-08 -1.66026e-08
-3.84418e-08 -1.69537e-05 1.12131e-06
2.7871e-06 1.62157e-08 -1.0368e-07
-8.13335e-08 -1.81228e-05 1.20852e-06
2.77898e-10 -9.45081e-07 6.75401e-08
8.44934e-10 -1.89098e-06 1.35219e-07
1.69289e-09 -2.83724e-06 2.03268e-07
3.43842e-06 3.09191e-09 -2.79689e-08
1.06726e-09 -3.78071e-06 2.66284e-07
1.90661e-09 -4.72567e-06 3.31148e-07
7.28569e-09 -6.65203e-06 4.70323e-07
3.27978e-06 6.37422e-09 -2.54538e-08
4.99e-09 -7.68694e-06 5.43099e-07
7.88924e-09 -1.01661e-05 7.0115e-07
-7.51565e-10 -1.17121e-05 8.11259e-07
2.98113e-06 1.12625e-08 -1.83894e-08
-5.07511e-09 -1.52918e-05 1.01296e-06
2.88832e-06 1.3728e-08 -5.91742e-08
-3.91167e-08 -1.70126e-05 1.12236e-06
2.55483e-06 1.57087e-08 -1.35962e-07
-8.06234e-08 -1.81833e-05 1.20524e-06
2.60434e-06 1.5804e-08 4.4678e-09
2.73643e-06 -1.62543e-08 -2.54526e-07
2.67891e-06 -1.58403e-08 -2.44073e-07
2.62368e-06 -1.56784e-08 -2.33151e-07
2.56901e-06 -1.55851e-08 -2.2303e-07
-8.12344e-08 1.79985e-05 -1.20797e-06
-7.49388e-08 1.81604e-05 -1.22241e-06
2.82758e-06 -1.83833e-08 1.48179e-07
2.67532e-06 -1.64219e-08 -6.51036e-09
-7.42052e-08 1.79319e-05 -1.20868e-06
-7.16725e-08 1.80918e-05 -1.22894e-06
-1.27479e-07 1.49911e-05 -9.98503e-07
2.90696e-06 -1.90913e-08 1.51175e-07
2.74971e-06 -1.69657e-08 -8.70054e-09
-1.22957e-07 1.50606e-05 -9.84033e-07
-1.20518e-07 1.5128e-05 -9.70903e-07
-1.14457e-07 1.51912e-05 -9.58883e-07
-6.82387e-08 1.78641e-05 -1.20743e-06
-6.59261e-08 1.80217e-05 -1.22157e-06
2.96787e-06 -1.96001e-08 1.48403e-07
-6.03457e-08 1.77933e-05 -1.20636e-06
-5.58911e-08 1.79501e-05 -1.20377e-06
2.90501e-06 -1.82515e-08 -1.35358e-07
2.84425e-06 -1.7574e-08 -1.29478e-07
2.78488e-06 -1.70489e-08 -1.23466e-07
3.03979e-06 -2.01995e-08 1.46589e-07
-5.69057e-08 1.77228e-05 -1.20812e-06
3.10838e-06 -2.10558e-08 1.48404e-07
-7.66686e-08 1.67213e-05 -1.12823e-06
-7.60559e-08 1.67954e-05 -1.11576e-06
-5.87561e-08 1.765e-05 -1.21769e-06
3.17712e-06 -2.19943e-08 1.50727e-07
-6.28675e-08 1.75761e-05 -1.22735e-06
3.246e-06 -2.31773e-08 1.522e-07
-6.86219e-08 1.74998e-05 -1.23841e-06
-5.00276e-08 1.76501e-05 -1.20169e-06
-4.12552e-08 1.77247e-05 -1.18545e-06
3.07285e-06 -2.00325e-08 -3.03903e-08
-4.15462e-08 1.7801e-05 -1.17418e-06
3.0056e-06 -1.91859e-08 -2.5107e-08
2.94115e-06 -1.85033e-08 -1.75678e-08
-7.76105e-08 1.68672e-05 -1.10486e-06
-4.57676e-08 1.78756e-05 -1.19389e-06
2.87605e-06 -1.796e-08 -1.53101e-08
-7.92822e-08 1.6939e-05 -1.1145e-06
2.80716e-06 -1.7483e-08 -1.06264e-08
-8.27291e-08 1.70092e-05 -1.11505e-06
2.72471e-06 -1.66705e-08 -1.16807e-07
-8.68348e-08 1.70762e-05 -1.1252e-06
2.6616e-06 -1.62802e-08 -1.09661e-07
-9.46535e-08 1.71448e-05 -1.13387e-06
-1.15638e-07 1.52549e-05 -9.70909e-07
2.60711e-06 -1.5878e-08 -1.04123e-07
-1.02147e-07 1.72122e-05 -1.14066e-06
2.53787e-06 -1.53827e-08 -9.84578e-08
-1.24945e-07 1.53223e-05 -9.69052e-07
2.87419e-06 -1.74944e-08 -2.71926e-07
2.94503e-06 -1.8387e-08 -2.82531e-07
3.01876e-06 -1.84812e-08 -2.94778e-07
3.09357e-06 -1.85734e-08 -3.07003e-07
3.17304e-06 -1.86764e-08 -3.21042e-07
3.25413e-06 -1.88804e-08 -3.35689e-07
3.34159e-06 -1.91358e-08 -3.50755e-07
3.43782e-06 -1.91741e-08 -3.65621e-07
-9.31933e-08 1.29768e-05 -8.18308e-07
-9.47108e-08 1.30567e-05 -8.18574e-07
-9.87254e-08 1.31359e-05 -8.19545e-07
3.17962e-06 -2.11216e-08 -6.10092e-07
3.09178e-06 -1.99924e-08 -5.87275e-07
-1.07481e-07 1.32142e-05 -8.20999e-07
3.01145e-06 -1.93827e-08 -5.64442e-07
-1.15977e-07 1.32918e-05 -8.20788e-07
-1.23011e-07 1.33662e-05 -8.26475e-07
2.93688e-06 -1.89321e-08 -5.43255e-07
-1.27712e-07 1.34361e-05 -8.30977e-07
3.05599e-06 -1.96257e-08 -1.45655e-07
3.23564e-06 -2.1534e-08 -3.43658e-08
3.42326e-06 -2.53534e-08 1.59699e-07
-1.28767e-07 1.49153e-05 -1.02067e-06
-7.03443e-08 1.66418e-05 -1.14898e-06
-6.07553e-08 1.74187e-05 -1.25055e-06
-4.11013e-08 1.75662e-05 -1.23276e-06
-1.18786e-07 1.48418e-05 -1.03609e-06
-1.17709e-07 1.47713e-05 -1.03871e-06
-1.19735e-07 1.46988e-05 -1.04638e-06
-1.17305e-07 1.46253e-05 -1.05444e-06
-1.22408e-07 1.45508e-05 -1.0622e-06
-1.29409e-07 1.44755e-05 -1.06924e-06
3.13174e-06 -2.06163e-08 -1.51668e-07
3.31553e-06 -2.25708e-08 -3.69173e-08
3.5113e-06 -2.70365e-08 1.64365e-07
-6.26377e-08 1.65671e-05 -1.17265e-06
-2.52862e-08 1.74885e-05 -1.25001e-06
-4.5059e-08 1.73408e-05 -1.26002e-06
3.2104e-06 -2.08847e-08 -1.58796e-07
3.39782e-06 -2.28393e-08 -4.02208e-08
3.60119e-06 -2.77255e-08 1.67509e-07
-6.05898e-08 1.64928e-05 -1.18222e-06
-1.55709e-08 1.74128e-05 -1.25719e-06
-3.62556e-08 1.72636e-05 -1.26024e-06
3.28952e-06 -2.11544e-08 -1.65773e-07
3.37236e-06 -2.13109e-08 -1.75207e-07
3.45731e-06 -2.15124e-08 -1.84646e-07
3.5489e-06 -2.17592e-08 -1.94384e-07
3.65139e-06 -2.17548e-08 -2.02463e-07
3.48039e-06 -2.31208e-08 -4.31352e-08
3.69134e-06 -2.8398e-08 1.71527e-07
-6.24997e-08 1.64178e-05 -1.19606e-06
-1.0782e-08 1.73363e-05 -1.26808e-06
-3.06346e-08 1.7186e-05 -1.26125e-06
3.78601e-06 -2.90074e-08 1.76575e-07
-5.80179e-08 1.63409e-05 -1.20459e-06
-6.1776e-08 1.62626e-05 -1.21133e-06
-6.74387e-08 1.61835e-05 -1.21715e-06
3.56656e-06 -2.32156e-08 -4.79211e-08
-4.45985e-09 1.72593e-05 -1.27509e-06
-2.14774e-08 1.71083e-05 -1.2571e-06
3.65421e-06 -2.33764e-08 -5.28167e-08
3.88161e-06 -2.93062e-08 1.82369e-07
3.74953e-06 -2.36058e-08 -5.68872e-08
3.85352e-06 -2.37072e-08 -6.10414e-08
-8.8254e-09 1.71811e-05 -1.28364e-06
-2.157e-08 1.70341e-05 -1.25166e-06
3.98361e-06 -2.97036e-08 1.87709e-07
-4.60519e-09 1.71001e-05 -1.28624e-06
-2.29233e-08 1.69544e-05 -1.25525e-06
4.09539e-06 -2.99313e-08 1.93444e-07
-8.77046e-08 1.2895e-05 -8.22645e-07
3.5431e-06 -1.86064e-08 -3.83032e-07
3.27743e-06 -2.14447e-08 -6.32695e-07
-8.08013e-08 1.28145e-05 -8.37275e-07
-7.56326e-08 1.35707e-05 -8.22535e-07
3.65692e-06 -1.83463e-08 -3.98381e-07
3.37806e-06 -2.18151e-08 -6.58077e-07
-8.0951e-08 1.27311e-05 -8.51618e-07
3.49305e-06 -2.12465e-08 -6.90653e-07
3.79041e-06 -1.84394e-08 -4.1537e-07
-7.8482e-08 1.26455e-05 -8.60844e-07
3.60846e-06 -1.98002e-08 -7.2693e-07
3.92601e-06 -1.85542e-08 -4.34539e-07
-6.62305e-08 1.32868e-05 -8.35541e-07
-8.38943e-08 1.25541e-05 -8.6407e-07
-5.77413e-08 1.31769e-05 -8.53842e-07
-5.48847e-08 1.30573e-05 -8.59802e-07
-5.25622e-08 1.2936e-05 -8.52964e-07
3.73965e-06 -1.86703e-08 -7.68321e-07
4.08363e-06 -1.91691e-08 -4.56268e-07
-7.95241e-08 1.24549e-05 -8.57039e-07
3.92725e-06 -1.7937e-08 -8.22489e-07
4.07305e-06 -1.72037e-08 -8.65782e-07
4.30793e-06 -2.05484e-08 -4.86592e-07
-6.9209e-08 1.23418e-05 -8.47252e-07
-6.24748e-08 1.22212e-05 -8.49684e-07
4.4856e-06 -1.95261e-08 -5.14656e-07
-5.97748e-08 1.33853e-05 -8.34293e-07
3.70094e-06 -2.1854e-08 -1.09984e-06
-6.18531e-08 1.34798e-05 -8.29553e-07
3.57679e-06 -2.28567e-08 -1.05463e-06
-8.04617e-08 1.36564e-05 -8.18921e-07
3.41735e-06 -2.23279e-08 -9.96597e-07
-1.2387e-07 1.4399e-05 -1.06612e-06
-4.7567e-08 1.61003e-05 -1.20764e-06
4.796e-09 1.70183e-05 -1.27557e-06
-1.74349e-08 1.68762e-05 -1.25159e-06
3.76408e-06 -2.11154e-08 -2.11467e-07
3.97023e-06 -2.28478e-08 -6.36437e-08
4.22094e-06 -2.90504e-08 2.0148e-07
-1.1464e-07 1.43203e-05 -1.06387e-06
-1.04368e-07 1.42343e-05 -1.07323e-06
-8.62316e-08 1.41411e-05 -1.07535e-06
-8.66075e-08 1.40415e-05 -1.0775e-06
-7.0575e-08 1.39328e-05 -1.07461e-06
-5.16246e-08 1.38129e-05 -1.07027e-06
-5.021e-08 1.36953e-05 -1.05927e-06
-4.39039e-08 1.60181e-05 -1.2032e-06
1.35857e-08 1.69342e-05 -1.26776e-06
-1.21531e-08 1.67974e-05 -1.25124e-06
4.35654e-06 -2.88001e-08 2.09731e-07
3.88233e-06 -2.03909e-08 -2.23063e-07
4.09537e-06 -2.23297e-08 -6.71335e-08
4.02495e-06 -2.04683e-08 -2.3632e-07
4.17381e-06 -2.06531e-08 -2.47914e-07
4.34899e-06 -2.13498e-08 -2.60719e-07
4.59729e-06 -2.34627e-08 -2.80506e-07
4.80044e-06 -2.22177e-08 -2.99435e-07
-4.70448e-08 1.59352e-05 -1.1914e-06
1.80587e-08 1.68479e-05 -1.26332e-06
-8.26557e-09 1.67201e-05 -1.24426e-06
4.24696e-06 -2.20856e-08 -7.18388e-08
4.52572e-06 -2.84644e-08 2.2498e-07
-4.963e-08 1.58435e-05 -1.18958e-06
2.69131e-08 1.67584e-05 -1.2528e-06
1.05566e-10 1.66351e-05 -1.24359e-06
-3.78836e-08 1.5743e-05 -1.19732e-06
-2.94463e-08 1.56334e-05 -1.20196e-06
-1.83339e-08 1.55127e-05 -1.19137e-06
-1.77539e-08 1.53929e-05 -1.18782e-06
4.40733e-06 -2.22462e-08 -7.68688e-08
4.70331e-06 -2.8393e-08 2.35945e-07
1.68012e-08 1.66613e-05 -1.26433e-06
-2.23931e-09 1.65452e-05 -1.24833e-06
4.59671e-06 -2.33394e-08 -8.31903e-08
4.86849e-06 -2.5322e-08 -9.31157e-08
5.09894e-06 -2.50991e-08 -1.00048e-07
4.9156e-06 -2.89916e-08 2.48331e-07
6.86392e-09 1.65589e-05 -1.26623e-06
-6.6622e-10 1.64463e-05 -1.25156e-06
5.21745e-06 -3.02631e-08 2.548e-07
5.08372e-09 1.64397e-05 -1.27818e-06
8.37533e-09 1.63213e-05 -1.2799e-06
-5.89337e-10 1.63374e-05 -1.2576e-06
5.48372e-06 -3.03427e-08 2.68377e-07
-3.30426e-09 1.62397e-05 -1.25913e-06
3.80043e-06 -1.83453e-08 -1.14332e-06
4.19287e-06 -1.41275e-08 -9.03668e-07
4.63681e-06 -1.56285e-08 -5.32587e-07
-4.5289e-08 1.28066e-05 -8.55127e-07
-5.32349e-08 1.20886e-05 -8.60771e-07
3.90118e-06 -1.49504e-08 -1.18753e-06
4.31503e-06 -1.05486e-08 -9.41879e-07
4.79093e-06 -1.2155e-08 -5.51591e-07
-2.09744e-08 1.79713e-05 -1.01517e-06
-3.4773e-08 1.80537e-05 -1.046e-06
-5.28386e-08 1.81578e-05 -1.08305e-06
-3.92804e-08 1.2678e-05 -8.49679e-07
-3.68047e-08 1.19503e-05 -8.65886e-07
3.98353e-06 -1.14767e-08 -1.22731e-06
4.4133e-06 -6.89525e-09 -9.75392e-07
4.91637e-06 -8.39648e-09 -5.69236e-07
4.07492e-06 -3.68153e-09 -1.30467e-06
4.03453e-06 5.4188e-11 -1.30321e-06
3.99587e-06 3.6218e-09 -1.30209e-06
4.07159e-06 -7.06527e-09 -1.28718e-06
4.04728e-06 -9.14564e-09 -1.26314e-06
-2.74323e-08 1.2542e-05 -8.37137e-07
-2.18603e-08 1.18074e-05 -8.61432e-07
-1.53123e-08 1.24088e-05 -8.17132e-07
-9.35428e-09 1.2282e-05 -7.92269e-07
-1.6552e-09 1.2174e-05 -7.68434e-07
1.49119e-08 1.20764e-05 -7.58302e-07
4.48634e-06 -2.36492e-09 -1.00145e-06
5.01245e-06 -4.42441e-09 -5.79955e-07
-7.87815e-09 1.1656e-05 -8.47947e-07
4.50511e-06 1.58549e-09 -1.01726e-06
4.49269e-06 3.03881e-09 -1.02768e-06
4.4136e-06 5.54777e-09 -1.02035e-06
4.3264e-06 6.99402e-09 -1.01016e-06
5.03453e-06 -8.45629e-10 -5.8858e-07
1.77506e-08 1.15068e-05 -8.15818e-07
2.41709e-08 1.13745e-05 -7.85161e-07
4.40025e-08 1.12581e-05 -7.63238e-07
5.01121e-06 2.47854e-09 -5.94419e-07
4.89299e-06 1.13526e-08 -5.88185e-07
4.75333e-06 1.75916e-08 -5.76821e-07
-6.66924e-08 1.82842e-05 -1.11171e-06
-7.79028e-08 1.84238e-05 -1.10968e-06
4.97218e-06 -1.80954e-08 -3.09506e-07
5.29378e-06 -2.05269e-08 -1.03358e-07
5.71088e-06 -2.72466e-08 2.79792e-07
-5.35114e-08 1.35714e-05 -1.0687e-06
-1.85521e-08 1.52659e-05 -1.20476e-06
1.48996e-08 1.61984e-05 -1.28972e-06
5.95274e-09 1.61303e-05 -1.26929e-06
-4.86936e-08 1.343e-05 -1.08169e-06
-4.41643e-08 1.32831e-05 -1.07719e-06
-3.52065e-08 1.31254e-05 -1.06885e-06
-1.56941e-08 1.29633e-05 -1.04599e-06
2.59643e-09 1.28153e-05 -1.01819e-06
1.9935e-08 1.26964e-05 -1.00125e-06
5.15385e-06 -1.35082e-08 -3.19025e-07
5.50611e-06 -1.64085e-08 -1.03691e-07
5.96329e-06 -2.37469e-08 2.94855e-07
5.30453e-06 -1.01708e-08 -3.29553e-07
5.41699e-06 -6.97663e-09 -3.37792e-07
5.44464e-06 -3.23385e-09 -3.46236e-07
5.41553e-06 -9.6065e-10 -3.52809e-07
5.26874e-06 6.43835e-09 -3.49062e-07
5.08034e-06 1.20926e-08 -3.43492e-07
-1.79136e-08 1.51315e-05 -1.21046e-06
2.00286e-08 1.60603e-05 -1.30745e-06
2.03179e-08 1.60049e-05 -1.27603e-06
5.68656e-06 -1.24752e-08 -1.05262e-07
6.18857e-06 -2.14987e-08 3.15277e-07
-1.87054e-08 1.49812e-05 -1.21555e-06
2.01192e-08 1.59085e-05 -1.31719e-06
2.69252e-08 1.58584e-05 -1.28353e-06
-1.07544e-08 1.48131e-05 -1.21558e-06
9.31136e-09 1.46358e-05 -1.19635e-06
2.64771e-08 1.44677e-05 -1.17189e-06
4.26853e-08 1.43235e-05 -1.15837e-06
5.82521e-06 -7.7681e-09 -1.05562e-07
6.36506e-06 -1.72802e-08 3.22622e-07
2.15116e-08 1.57457e-05 -1.30799e-06
3.24205e-08 1.56994e-05 -1.28073e-06
5.86926e-06 -5.87623e-09 -1.10035e-07
5.84357e-06 -4.89305e-09 -1.17573e-07
5.67593e-06 3.08672e-09 -1.22435e-07
5.44783e-06 8.05837e-09 -1.2564e-07
6.44026e-06 -1.47282e-08 3.23295e-07
3.31546e-08 1.55672e-05 -1.28486e-06
5.02736e-08 1.53841e-05 -1.26116e-06
5.38411e-08 1.52168e-05 -1.25454e-06
4.22594e-08 1.55207e-05 -1.26892e-06
6.43125e-06 -1.41894e-08 3.11255e-07
4.86255e-08 1.53506e-05 -1.25514e-06
6.25919e-06 -8.81231e-09 2.99045e-07
6.00848e-06 -9.34653e-09 2.97973e-07
4.84353e-08 1.51972e-05 -1.25277e-06
-3.62279e-08 1.68939e-05 -1.1272e-06
-4.60352e-09 1.52359e-05 -1.01568e-06
-1.18488e-08 1.34097e-05 -9.28128e-07
2.94478e-06 -1.76706e-08 1.05391e-07
3.05265e-06 -1.53372e-08 5.89026e-08
3.15088e-06 -1.25828e-08 1.45024e-08
3.22697e-06 -1.23308e-08 3.71547e-08
-3.01551e-08 1.6833e-05 -1.1343e-06
-9.33482e-10 1.51787e-05 -1.01846e-06
-7.86448e-09 1.33568e-05 -9.28101e-07
3.02865e-06 -1.82686e-08 1.0633e-07
3.09258e-06 -1.88344e-08 1.07686e-07
3.16736e-06 -1.93485e-08 1.07513e-07
3.23811e-06 -2.00226e-08 1.10287e-07
3.30868e-06 -2.07843e-08 1.13168e-07
3.37882e-06 -2.17573e-08 1.15357e-07
3.14132e-06 -1.61062e-08 5.78029e-08
3.24211e-06 -1.3199e-08 1.33184e-08
3.31918e-06 -1.27073e-08 3.90776e-08
-2.38878e-08 1.67708e-05 -1.13874e-06
4.56107e-09 1.51219e-05 -1.02412e-06
-3.8095e-09 1.33034e-05 -9.29126e-07
3.21121e-06 -1.67895e-08 5.59793e-08
3.31436e-06 -1.38568e-08 1.47523e-08
3.39195e-06 -1.2985e-08 3.97104e-08
-1.52505e-08 1.67055e-05 -1.14205e-06
4.74808e-10 1.32498e-05 -9.3077e-07
1.25004e-08 1.50624e-05 -1.03019e-06
-8.50468e-09 1.66382e-05 -1.14459e-06
-4.72454e-09 1.65685e-05 -1.15035e-06
-3.73463e-09 1.64974e-05 -1.15685e-06
-4.40065e-09 1.64238e-05 -1.16623e-06
3.29175e-06 -1.76149e-08 5.35054e-08
3.39647e-06 -1.45945e-08 1.66632e-08
3.47513e-06 -1.32301e-08 3.99028e-08
1.8647e-08 1.50032e-05 -1.03465e-06
7.20248e-09 1.3193e-05 -9.30832e-07
3.36815e-06 -1.85395e-08 5.50334e-08
3.47474e-06 -1.53848e-08 1.87484e-08
3.55436e-06 -1.35038e-08 4.05899e-08
2.44728e-08 1.49422e-05 -1.03486e-06
1.08758e-08 1.31368e-05 -9.32147e-07
3.44164e-06 -1.9226e-08 5.63715e-08
3.51262e-06 -2.00222e-08 5.91099e-08
3.55351e-06 -1.63269e-08 2.03513e-08
3.63376e-06 -1.38868e-08 4.18923e-08
2.80707e-08 1.48804e-05 -1.03786e-06
1.38314e-08 1.30802e-05 -9.35244e-07
3.63068e-06 -1.73771e-08 2.07659e-08
3.71069e-06 -1.4297e-08 4.29279e-08
3.03297e-08 1.48149e-05 -1.04382e-06
1.44348e-08 1.30208e-05 -9.45569e-07
3.94709e-09 8.80252e-06 -6.20397e-07
6.56717e-10 1.16667e-05 -8.11259e-07
8.36331e-09 1.01254e-05 -7.04975e-07
6.62023e-09 7.65438e-06 -5.4197e-07
3.37761e-06 -7.41384e-09 -3.81443e-09
3.46282e-06 -6.5753e-09 2.66311e-08
3.52045e-06 -5.59281e-09 1.01696e-08
3.30551e-06 -1.06916e-08 1.162e-08
3.26167e-09 1.16191e-05 -8.1118e-07
7.10796e-09 1.15696e-05 -8.13246e-07
9.64911e-09 1.15213e-05 -8.15259e-07
1.28887e-08 1.14717e-05 -8.15459e-07
1.62032e-08 1.14208e-05 -8.15246e-07
2.12427e-08 1.13134e-05 -8.23386e-07
2.01159e-08 1.13677e-05 -8.17249e-07
7.67669e-09 8.76302e-06 -6.1949e-07
8.47798e-09 7.6203e-06 -5.40036e-07
1.16285e-08 1.00816e-05 -7.07496e-07
3.56166e-06 -6.5711e-09 2.68722e-08
3.62047e-06 -5.53697e-09 1.06433e-08
3.40115e-06 -1.13313e-08 1.1265e-08
3.47452e-06 -7.70141e-09 -4.62819e-09
1.03723e-08 8.72429e-06 -6.18306e-07
1.02119e-08 7.58592e-06 -5.38904e-07
1.38593e-08 1.00386e-05 -7.08479e-07
3.64059e-06 -6.45414e-09 2.67378e-08
3.47715e-06 -1.18126e-08 1.02698e-08
3.55205e-06 -7.93874e-09 -5.60669e-09
3.70017e-06 -5.43484e-09 1.05477e-08
1.27689e-08 8.68546e-06 -6.1762e-07
1.59315e-08 9.99543e-06 -7.09898e-07
1.24868e-08 7.55038e-06 -5.3928e-07
3.56242e-06 -1.20075e-08 1.05766e-08
3.64362e-06 -1.21471e-08 1.16012e-08
3.80272e-06 -1.26398e-08 1.39652e-08
3.72462e-06 -1.24441e-08 1.28217e-08
3.63997e-06 -8.37571e-09 -6.96565e-09
3.72943e-06 -6.4429e-09 2.62361e-08
3.79074e-06 -5.3347e-09 1.02589e-08
1.87781e-08 9.95115e-06 -7.09014e-07
1.66273e-08 8.64451e-06 -6.17216e-07
1.4255e-08 7.51525e-06 -5.37613e-07
3.72435e-06 -8.78842e-09 -9.05044e-09
3.81604e-06 -6.3861e-09 2.57739e-08
3.87903e-06 -5.18941e-09 9.70515e-09
1.86795e-08 8.60394e-06 -6.18267e-07
1.57057e-08 7.47936e-06 -5.37993e-07
3.90383e-06 -6.35345e-09 2.54789e-08
3.96885e-06 -5.00141e-09 8.92253e-09
2.05033e-08 8.5619e-06 -6.19823e-07
1.69681e-08 7.44214e-06 -5.38738e-07
2.75607e-08 9.80891e-06 -7.10944e-07
3.98722e-06 -6.46642e-09 2.53425e-08
4.05374e-06 -4.92192e-09 8.24162e-09
2.06656e-08 8.51915e-06 -6.22996e-07
1.69286e-08 7.40419e-06 -5.40169e-07
3.88979e-06 -9.71071e-09 -1.29903e-08
2.76216e-08 9.85712e-06 -7.05249e-07
3.80863e-06 -9.19087e-09 -1.0847e-08
2.40001e-08 9.90426e-06 -7.07283e-07
3.56259e-06 -2.36776e-08 1.22515e-07
3.70193e-06 -2.16918e-08 6.43204e-08
3.83018e-06 -1.91544e-08 1.82574e-08
3.9112e-06 -1.56067e-08 4.62704e-08
-2.33916e-09 1.63459e-05 -1.16925e-06
3.66412e-08 1.47414e-05 -1.04502e-06
1.7049e-08 1.29585e-05 -9.5137e-07
3.6522e-06 -2.5226e-08 1.2577e-07
3.74296e-06 -2.5566e-08 1.29494e-07
3.83317e-06 -2.59674e-08 1.33781e-07
3.92714e-06 -2.63461e-08 1.3807e-07
4.02104e-06 -2.64973e-08 1.43194e-07
4.1207e-06 -2.66493e-08 1.48809e-07
4.22951e-06 -2.65967e-08 1.54624e-07
3.79249e-06 -2.28726e-08 6.653e-08
3.93036e-06 -2.08243e-08 1.58522e-08
4.01167e-06 -1.67884e-08 4.93806e-08
-1.86395e-10 1.62709e-05 -1.16982e-06
4.2325e-08 1.46703e-05 -1.04457e-06
1.92701e-08 1.29004e-05 -9.56464e-07
3.8842e-06 -2.31508e-08 7.04366e-08
4.02502e-06 -2.12891e-08 2.09964e-08
4.11142e-06 -1.69591e-08 5.08275e-08
1.66694e-09 1.61964e-05 -1.16897e-06
1.131e-08 1.61217e-05 -1.17038e-06
2.31314e-08 1.60461e-05 -1.16665e-06
2.62899e-08 1.59706e-05 -1.16748e-06
2.50303e-08 1.58988e-05 -1.1624e-06
4.72122e-08 1.45993e-05 -1.04472e-06
2.26102e-08 1.2842e-05 -9.57967e-07
3.97529e-06 -2.3533e-08 7.68275e-08