# vtk DataFile Version 3.0
vtk output
ASCII
DATASET POLYDATA
POINTS 6666 float
0.189513 0.329816 -0.0185104
0.199575 0.334775 -0.0185801
0.209648 0.329743 -0.0180645
0.219702 0.334695 -0.0182322
0.239808 0.33463 -0.0180474
0.259896 0.334767 -0.018121
0.319969 0.334631 -0.018108
0.339946 0.334603 -0.0180309
0.359905 0.334575 -0.0180102
0.380086 0.334632 -0.0180721
0.400063 0.33461 -0.0179704
0.440058 0.33456 -0.017971
0.460039 0.334557 -0.0179232
0.480023 0.334553 -0.0179215
0.159434 0.334875 -0.0177749
0.179573 0.334794 -0.0178324
0.189532 0.319811 -0.0179826
0.199593 0.324769 -0.0180203
0.229765 0.329661 -0.0177974
0.249895 0.329715 -0.0178098
0.2699 0.329747 -0.0177185
0.279896 0.334702 -0.0180077
0.299861 0.334653 -0.0179555
0.329958 0.329616 -0.0177459
0.349922 0.329588 -0.0176967
0.369869 0.32956 -0.0177037
0.390067 0.329616 -0.0177051
0.420033 0.334557 -0.0179615
0.450037 0.329553 -0.0176496
0.470018 0.329549 -0.0176292
0.49 0.329544 -0.0176548
0.169519 0.329842 -0.0175206
0.139307 0.334942 -0.0174673
0.189551 0.309826 -0.0174026
0.199609 0.314782 -0.0174216
0.209665 0.319737 -0.0174889
0.219718 0.324689 -0.0176358
0.239823 0.324624 -0.0174352
0.259903 0.324781 -0.0175125
0.28988 0.329683 -0.0176519
0.309826 0.329636 -0.0176454
0.319967 0.324633 -0.0175135
0.339938 0.324601 -0.0174343
0.359891 0.324572 -0.0174149
0.380075 0.324626 -0.0174852
0.400049 0.324601 -0.0173937
0.410036 0.329568 -0.0176837
0.430011 0.329544 -0.0176559
0.440037 0.324551 -0.017423
0.460014 0.324544 -0.0173827
0.479994 0.324539 -0.01739
0.810487 0.329816 -0.0185099
0.800425 0.334775 -0.0185797
0.499992 0.334549 -0.0179717
0.519977 0.334553 -0.0179277
0.539961 0.334556 -0.0179301
0.559942 0.33456 -0.0179796
0.579959 0.334587 -0.0179167
0.599938 0.33461 -0.0179765
0.619916 0.334632 -0.0180787
0.640095 0.334575 -0.0180118
0.660054 0.334602 -0.0180325
0.680031 0.33463 -0.0181097
0.740104 0.334767 -0.0181217
0.790352 0.329743 -0.0180643
0.760192 0.334629 -0.0180475
0.780298 0.334695 -0.018232
0.51 0.329544 -0.0176609
0.529982 0.329548 -0.0176356
0.549963 0.329553 -0.0176572
0.609934 0.329616 -0.0177113
0.630131 0.329559 -0.017705
0.650078 0.329587 -0.0176981
0.670043 0.329616 -0.0177474
0.7301 0.329746 -0.0177191
0.700139 0.334653 -0.0179562
0.720104 0.334701 -0.0180084
0.750105 0.329714 -0.0178103
0.810467 0.319811 -0.017982
0.800407 0.324769 -0.0180198
0.770235 0.329661 -0.0177975
0.820427 0.334794 -0.0178309
0.840566 0.334875 -0.0177733
0.500025 0.324536 -0.0174507
0.520006 0.324539 -0.0173963
0.539986 0.324544 -0.0173897
0.559964 0.324551 -0.0174317
0.599952 0.3246 -0.0173999
0.619926 0.324626 -0.0174917
0.56999 0.329543 -0.0176622
0.589965 0.329568 -0.0176897
0.64011 0.324571 -0.0174164
0.660062 0.324601 -0.0174358
0.680033 0.324632 -0.0175151
0.740097 0.324781 -0.0175131
0.690174 0.329635 -0.0176459
0.71012 0.329683 -0.0176525
0.810449 0.309826 -0.017402
0.800391 0.314782 -0.0174211
0.790335 0.319737 -0.0174886
0.760177 0.324623 -0.0174353
0.780281 0.324689 -0.0176356
0.830481 0.329841 -0.0175192
0.860693 0.334942 -0.0174654
0.119083 0.455486 -0.0223711
0.109067 0.460533 -0.0218241
0.119089 0.445445 -0.0217548
0.109075 0.450497 -0.0211734
0.119082 0.435394 -0.0211854
0.0991031 0.45558 -0.0204255
0.109089 0.440464 -0.0205843
0.119072 0.425346 -0.0206402
0.0891528 0.460645 -0.019461
0.0991234 0.445556 -0.0197958
0.109094 0.430377 -0.0200164
0.119084 0.415198 -0.0200761
0.109089 0.420239 -0.0194795
0.0991328 0.435383 -0.0191906
0.0892023 0.450488 -0.0187132
0.119115 0.405069 -0.0194755
0.109105 0.410117 -0.0189637
0.0991353 0.42526 -0.0186861
0.119138 0.395023 -0.0188993
0.0892122 0.440378 -0.0181643
0.109143 0.400074 -0.0184006
0.0991428 0.415176 -0.0182372
0.119184 0.384974 -0.0183764
0.0892078 0.430312 -0.0177103
0.079276 0.455528 -0.0175552
0.119218 0.374942 -0.0178701
0.109184 0.39004 -0.017894
0.0991723 0.405132 -0.0177451
0.119264 0.364905 -0.0173525
0.109219 0.380002 -0.0173885
0.0892028 0.420262 -0.017293
0.149338 0.339905 -0.0179401
0.16948 0.33983 -0.0181326
0.159386 0.34486 -0.0183817
0.179534 0.34478 -0.0184458
0.139246 0.344922 -0.0180698
0.14929 0.349891 -0.0185288
0.169442 0.349817 -0.0187331
0.159352 0.354871 -0.0189179
0.179507 0.354799 -0.0189999
0.139202 0.354918 -0.0185799
0.169422 0.35987 -0.01923
0.149266 0.35991 -0.0190332
0.159332 0.364933 -0.0194218
0.179495 0.364873 -0.0195256
0.139172 0.364958 -0.019052
0.169408 0.369956 -0.0197697
0.14924 0.369976 -0.0195478
0.179489 0.374977 -0.0200863
0.15932 0.374991 -0.0199839
0.1694 0.380076 -0.020342
0.14922 0.380079 -0.0200889
0.17949 0.385125 -0.0206815
0.15931 0.385117 -0.0205469
0.169396 0.390243 -0.0209524
0.149205 0.390231 -0.020657
0.159297 0.395353 -0.0211587
0.179492 0.395297 -0.021325
0.169392 0.40043 -0.0216188
0.149189 0.40041 -0.0212806
0.128983 0.40038 -0.020606
0.1391 0.395269 -0.020693
0.13912 0.385118 -0.0201329
0.129036 0.390213 -0.0200087
0.139144 0.375008 -0.0196028
0.129067 0.380082 -0.0194722
0.129075 0.369992 -0.0189938
0.129117 0.359945 -0.0185092
0.129153 0.349936 -0.0180847
0.129215 0.339957 -0.0175024
0.189479 0.339825 -0.0190894
0.209627 0.339749 -0.0186636
0.22975 0.339666 -0.0184043
0.249884 0.339727 -0.0184209
0.199541 0.344781 -0.0192049
0.219685 0.344696 -0.0188477
0.239796 0.344631 -0.018649
0.189436 0.349847 -0.0197181
0.209605 0.349763 -0.0192906
0.229738 0.349673 -0.0190211
0.249876 0.349743 -0.0190377
0.199517 0.354817 -0.0197582
0.219675 0.354727 -0.0193997
0.239789 0.354664 -0.0191967
0.189408 0.359931 -0.0202085
0.209598 0.359803 -0.0198154
0.229738 0.359745 -0.0195174
0.249878 0.359823 -0.0194965
0.199499 0.36492 -0.0202979
0.219674 0.36482 -0.0199263
0.239792 0.364761 -0.019718
0.189374 0.370023 -0.0208479
0.209591 0.369922 -0.0203821
0.229742 0.369866 -0.0200745
0.249884 0.369956 -0.0199931
0.199483 0.375084 -0.0208977
0.219677 0.37496 -0.0205067
0.2398 0.374902 -0.0202939
0.189345 0.38022 -0.0214879
0.209587 0.380097 -0.0210008
0.229751 0.380038 -0.0206908
0.249892 0.380151 -0.0205238
0.19947 0.385311 -0.0215737
0.219683 0.385159 -0.021158
0.239812 0.385095 -0.0209446
0.189318 0.390484 -0.0222106
0.209584 0.390417 -0.0217268
0.229763 0.390262 -0.0213879
0.249902 0.390423 -0.0211182
0.199459 0.395461 -0.022298
0.219691 0.395405 -0.0218951
0.239826 0.395329 -0.0216806
0.189294 0.400507 -0.0229246
0.209586 0.400447 -0.0224227
0.229774 0.400363 -0.022097
0.249903 0.400597 -0.0218082
0.159284 0.405445 -0.0217884
0.179489 0.405371 -0.0219514
0.139071 0.405525 -0.0212942
0.149163 0.410484 -0.0218909
0.169382 0.410407 -0.0221975
0.128948 0.410592 -0.0212109
0.179489 0.415378 -0.0224718
0.15928 0.415474 -0.0223362
0.139058 0.415556 -0.0218591
0.149174 0.420519 -0.0224267
0.169401 0.420455 -0.0226978
0.128946 0.420619 -0.0217764
0.179512 0.425438 -0.0229506
0.159297 0.425526 -0.0228608
0.139065 0.4256 -0.0224195
0.149183 0.430567 -0.0229745
0.169419 0.430511 -0.0232107
0.128945 0.430636 -0.0223326
0.179533 0.435504 -0.0234478
0.159312 0.435587 -0.0233875
0.139072 0.435659 -0.0229599
0.169431 0.440556 -0.0237363
0.149194 0.440635 -0.0235143
0.128948 0.440702 -0.0228673
0.179548 0.445581 -0.0240208
0.139068 0.445706 -0.0235454
0.15932 0.445664 -0.0239801
0.169433 0.450641 -0.0243818
0.149187 0.450722 -0.0241647
0.128933 0.450795 -0.023503
0.159299 0.455733 -0.0246888
0.179542 0.455671 -0.0247325
0.139042 0.455808 -0.024254
0.14915 0.460816 -0.0249493
0.169411 0.460759 -0.0251789
0.128887 0.460883 -0.0242506
0.199447 0.405494 -0.0229846
0.219697 0.405396 -0.0225366
0.239838 0.405304 -0.0222865
0.189265 0.410542 -0.0236088
0.209584 0.410467 -0.0230551
0.229786 0.410364 -0.022684
0.249899 0.410579 -0.0223571
0.199446 0.415501 -0.0235905
0.219715 0.415405 -0.0230869
0.239862 0.415314 -0.0227862
0.189264 0.420516 -0.0241967
0.209607 0.420452 -0.0235993
0.229821 0.420361 -0.02317
0.249914 0.420616 -0.022877
0.19946 0.425508 -0.0241422
0.219747 0.425418 -0.0235965
0.239904 0.425361 -0.0232466
0.189265 0.430532 -0.0247404
0.209631 0.430473 -0.0241179
0.22986 0.430414 -0.0236549
0.249917 0.430681 -0.0234687
0.199474 0.435552 -0.0246718
0.21978 0.435491 -0.0241034
0.239942 0.435409 -0.0236901
0.189266 0.440634 -0.0253211
0.209654 0.440535 -0.0246397
0.229896 0.440476 -0.0241359
0.249917 0.440783 -0.0239854
0.199484 0.445635 -0.02526
0.219808 0.445567 -0.0246569
0.239976 0.445486 -0.0241932
0.18926 0.450711 -0.0259365
0.20967 0.450626 -0.0252747
0.229924 0.450558 -0.0247325
0.199485 0.455757 -0.0259706
0.219824 0.455653 -0.0253159
0.24 0.455579 -0.0248459
0.189241 0.460851 -0.0267343
0.209672 0.460751 -0.026059
0.229936 0.460654 -0.0254531
0.249918 0.460971 -0.0251348
0.249925 0.450893 -0.0245625
0.0591967 0.525875 -0.0180308
0.0593534 0.515835 -0.0173102
0.119055 0.465543 -0.0230979
0.099041 0.465582 -0.0211361
0.0792139 0.465575 -0.0182639
0.108988 0.470573 -0.0226189
0.0890555 0.470634 -0.020252
0.118968 0.475608 -0.0239822
0.0989556 0.475605 -0.0220017
0.0790999 0.475712 -0.01918
0.108905 0.480661 -0.0234501
0.0889662 0.480652 -0.0210421
0.0691619 0.480603 -0.0177916
0.118895 0.485749 -0.024806
0.0988643 0.485708 -0.0227665
0.0790025 0.485697 -0.01991
0.10882 0.490783 -0.0243089
0.0888722 0.490738 -0.0218278
0.0690879 0.49078 -0.0185729
0.118823 0.495906 -0.0256929
0.0987717 0.495805 -0.0236059
0.078918 0.495739 -0.0206715
0.108742 0.500956 -0.0251635
0.088774 0.500817 -0.02263
0.06901 0.500752 -0.019232
0.118754 0.506126 -0.0265558
0.0986948 0.505963 -0.0244197
0.0788351 0.505817 -0.0214085
0.108675 0.511174 -0.0259362
0.0886965 0.51094 -0.023346
0.0689541 0.510808 -0.0198096
0.118679 0.516415 -0.0273919
0.0986216 0.516169 -0.0251329
0.078748 0.515921 -0.022035
0.108587 0.521438 -0.0268049
0.0886059 0.521156 -0.0240952
0.0688596 0.520916 -0.02047
0.118582 0.526544 -0.0283324
0.0985277 0.526434 -0.0259761
0.0786424 0.52611 -0.022788
0.0590318 0.535881 -0.0187188
0.0588446 0.546065 -0.019531
0.0490981 0.550848 -0.0174347
0.0587449 0.556314 -0.0200445
0.0489644 0.56095 -0.0178513
0.0586806 0.566361 -0.0204042
0.0488971 0.571176 -0.0180129
[...]
POINT_DATA 6666
VECTORS alpha float
5.9269e-06 -1.66887e-08 1.74825e-07
-6.49027e-09 1.55102e-05 -1.03667e-06
6.29317e-06 -1.89328e-08 1.2533e-07
8.56618e-09 1.45509e-05 -9.69522e-07
2.00745e-08 1.3095e-05 -8.68287e-07
1.09921e-08 1.14986e-05 -8.04986e-07
9.55602e-09 7.44014e-06 -5.18248e-07
7.40682e-09 6.44226e-06 -4.46795e-07
5.60143e-09 5.55097e-06 -3.83616e-07
3.64425e-09 4.72489e-06 -3.31019e-07
1.79587e-09 3.92032e-06 -2.73922e-07
1.32735e-09 2.33838e-06 -1.62579e-07
4.18241e-10 1.55524e-06 -1.07706e-07
-2.48244e-11 7.76355e-07 -5.36407e-08
-1.36994e-08 1.46648e-05 -9.80278e-07
6.25159e-09 1.55805e-05 -1.0543e-06
5.76743e-06 -1.74206e-08 1.86565e-07
-6.03592e-09 1.56881e-05 -1.05526e-06
6.63642e-06 -2.11665e-08 6.48903e-08
6.93465e-06 -2.07398e-08 6.50506e-08
7.186e-06 -1.70251e-08 5.1472e-08
1.22844e-08 9.94964e-06 -6.95441e-07
1.21537e-08 8.59027e-06 -5.97852e-07
7.7721e-06 -1.12803e-08 3.11077e-08
7.90036e-06 -1.11983e-08 8.66321e-09
8.00539e-06 -1.10198e-08 -1.34446e-08
8.11336e-06 -9.36283e-09 3.92698e-08
4.58072e-10 3.125e-06 -2.19443e-07
8.29655e-06 -2.0332e-09 1.83417e-08
8.32774e-06 -1.86533e-09 -1.05113e-09
8.34393e-06 -1.68672e-09 -2.0244e-08
5.54208e-06 -2.22248e-08 -9.3008e-09
-2.85865e-08 1.30074e-05 -8.57342e-07
5.56664e-06 -1.75171e-08 1.87551e-07
-5.99525e-09 1.58522e-05 -1.06551e-06
6.09876e-06 -1.92812e-08 1.31149e-07
1.01455e-08 1.47179e-05 -9.84787e-07
2.25294e-08 1.32459e-05 -8.79652e-07
1.18806e-08 1.16304e-05 -8.16914e-07
7.40744e-06 -1.80099e-08 1.90378e-08
7.59276e-06 -1.76833e-08 -1.2866e-08
9.89813e-09 7.51873e-06 -5.25596e-07
7.75162e-09 6.50748e-06 -4.5339e-07
5.94995e-09 5.60502e-06 -3.8966e-07
3.65845e-09 4.76961e-06 -3.35051e-07
1.77928e-09 3.95673e-06 -2.77637e-07
8.18828e-06 -1.0018e-08 2.03606e-08
8.24938e-06 -9.90894e-09 2.86154e-09
1.30435e-09 2.36015e-06 -1.65448e-07
3.93126e-10 1.56988e-06 -1.09757e-07
-4.19932e-11 7.8372e-07 -5.47494e-08
5.92721e-06 1.67281e-08 -1.74755e-07
-6.48299e-09 -1.55101e-05 1.03653e-06
7.53418e-14 2.28835e-10 -1.57999e-11
-2.4419e-11 -7.75877e-07 5.3603e-08
4.1188e-10 -1.55479e-06 1.07668e-07
1.30706e-09 -2.33798e-06 1.6255e-07
4.37849e-10 -3.12639e-06 2.18118e-07
1.76212e-09 -3.92002e-06 2.73917e-07
3.5747e-09 -4.72462e-06 3.31056e-07
5.59024e-09 -5.55093e-06 3.83725e-07
7.39574e-09 -6.44222e-06 4.46896e-07
9.54608e-09 -7.44007e-06 5.18323e-07
1.09803e-08 -1.14984e-05 8.05082e-07
6.29352e-06 1.89758e-08 -1.25255e-07
2.00786e-08 -1.30949e-05 8.68147e-07
8.57251e-09 -1.45509e-05 9.69365e-07
8.34395e-06 1.54985e-09 2.03356e-08
8.32769e-06 1.77545e-09 7.53308e-10
8.29646e-06 1.99025e-09 -1.90422e-08
8.1134e-06 9.48263e-09 -3.94585e-08
8.0054e-06 1.10295e-08 1.34206e-08
7.90047e-06 1.12061e-08 -8.69102e-09
7.77232e-06 1.1286e-08 -3.11364e-08
7.18639e-06 1.70678e-08 -5.14749e-08
1.21461e-08 -8.59023e-06 5.97875e-07
1.22757e-08 -9.94955e-06 6.9549e-07
6.93504e-06 2.07829e-08 -6.50227e-08
5.76763e-06 1.74615e-08 -1.86495e-07
-6.02707e-09 -1.5688e-05 1.05519e-06
6.63681e-06 2.12135e-08 -6.4808e-08
6.24177e-09 -1.55806e-05 1.05412e-06
-1.37013e-08 -1.46649e-05 9.80087e-07
7.28013e-14 2.0556e-10 -1.4375e-11
-4.20067e-11 -7.83277e-07 5.47138e-08
3.85985e-10 -1.56944e-06 1.09719e-07
1.28298e-09 -2.35973e-06 1.65415e-07
1.74299e-09 -3.95636e-06 2.77624e-07
3.58597e-09 -4.76925e-06 3.35087e-07
8.24923e-06 9.95334e-09 -2.61212e-09
8.18821e-06 1.01005e-08 -2.03315e-08
5.93542e-09 -5.60493e-06 3.8977e-07
7.7365e-09 -6.50738e-06 4.53496e-07
9.88331e-09 -7.51862e-06 5.25686e-07
1.18632e-08 -1.16303e-05 8.17017e-07
7.59305e-06 1.77237e-08 1.28028e-08
7.40779e-06 1.80516e-08 -1.90695e-08
5.56678e-06 1.75568e-08 -1.87474e-07
-5.97431e-09 -1.58521e-05 1.06544e-06
6.09898e-06 1.93259e-08 -1.31067e-07
2.25429e-08 -1.32459e-05 8.79597e-07
1.01578e-08 -1.47179e-05 9.84716e-07
5.54235e-06 2.22315e-08 9.34332e-09
-2.85804e-08 -1.30074e-05 8.57158e-07
5.2468e-08 1.12853e-05 -6.75791e-07
9.01017e-06 -1.74893e-08 -8.72406e-07
5.72784e-08 1.12727e-05 -6.37493e-07
7.38497e-06 -1.73565e-08 -7.10648e-07
5.93939e-08 1.12026e-05 -6.20474e-07
3.41546e-08 1.19138e-05 -6.90069e-07
6.13709e-06 -1.69242e-08 -5.82685e-07
5.6225e-08 1.11124e-05 -6.16909e-07
8.53065e-06 -1.038e-08 -1.18406e-06
4.3441e-08 1.19982e-05 -6.40813e-07
5.23862e-06 -1.80406e-08 -4.85706e-07
4.67929e-08 1.10308e-05 -6.05276e-07
4.67259e-06 -2.1969e-08 -4.21406e-07
4.68116e-08 1.1996e-05 -5.86655e-07
7.16859e-06 -1.6534e-08 -9.65493e-07
3.68014e-08 1.09816e-05 -6.02857e-07
4.35942e-06 -2.79006e-08 -3.81025e-07
4.05227e-08 1.1948e-05 -5.67745e-07
2.90733e-08 1.09768e-05 -6.06909e-07
6.08557e-06 -2.20565e-08 -8.03601e-07
4.24536e-06 -2.60679e-08 -3.63439e-07
2.89433e-08 1.1886e-05 -5.75634e-07
1.61368e-08 1.09978e-05 -6.13044e-07
5.27109e-06 -2.50323e-08 -6.83739e-07
3.12658e-08 1.73858e-05 -8.85794e-07
6.4694e-09 1.10634e-05 -6.21264e-07
4.11651e-06 -2.40818e-08 -3.4411e-07
1.68785e-08 1.18471e-05 -5.90214e-07
-4.47343e-09 1.11637e-05 -6.33575e-07
4.19341e-06 -2.3673e-08 -3.41293e-07
4.72407e-06 -2.81379e-08 -6.02469e-07
5.19122e-06 -1.81114e-08 -8.51786e-08
5.58254e-06 -2.19197e-08 -1.31578e-08
6.91304e-10 1.44777e-05 -9.48016e-07
1.96644e-08 1.53858e-05 -1.01997e-06
-1.42556e-08 1.28352e-05 -8.27778e-07
5.16407e-06 -1.76425e-08 -8.85132e-08
5.55901e-06 -2.19542e-08 -1.56683e-08
1.32312e-08 1.42978e-05 -9.18573e-07
3.11044e-08 1.51928e-05 -9.87211e-07
-1.53006e-09 1.26748e-05 -8.00805e-07
5.40136e-06 -1.73225e-08 -2.23731e-08
5.02512e-06 -1.42125e-08 -9.20999e-08
2.22146e-08 1.41335e-05 -9.0325e-07
3.93136e-08 1.50085e-05 -9.67638e-07
7.57675e-09 1.25357e-05 -7.87396e-07
5.18584e-06 -1.41355e-08 -2.58429e-08
4.84668e-06 -1.11525e-08 -9.42688e-08
4.34191e-08 1.48352e-05 -9.55638e-07
2.83125e-08 1.39821e-05 -8.94589e-07
4.86029e-06 -1.21008e-08 -2.89965e-08
4.58524e-06 -9.22902e-09 -9.46601e-08
4.4463e-08 1.46868e-05 -9.45776e-07
3.08292e-08 1.38648e-05 -8.86518e-07
4.52872e-06 -1.14237e-08 -3.23005e-08
4.33987e-06 -8.70829e-09 -9.57429e-08
2.81227e-08 1.37895e-05 -8.9439e-07
4.22752e-08 1.45719e-05 -9.39129e-07
4.44685e-06 -1.35834e-08 -3.61336e-08
4.33998e-06 -1.0925e-08 -1.01552e-07
4.28982e-06 -7.91577e-09 -1.86257e-07
1.81856e-08 1.22863e-05 -7.77284e-07
1.68105e-08 1.23303e-05 -7.79376e-07
4.21405e-06 -6.49296e-09 -1.777e-07
1.33607e-08 1.24146e-05 -7.84711e-07
4.3712e-06 -6.67275e-09 -1.77431e-07
4.56385e-06 -8.0781e-09 -1.7595e-07
4.6967e-06 -1.11009e-08 -1.74031e-07
4.80799e-06 -1.53327e-08 -1.67988e-07
4.82951e-06 -1.62866e-08 -1.63767e-07
5.99383e-06 -1.56531e-08 1.67482e-07
6.38895e-06 -1.85033e-08 1.22613e-07
6.76559e-06 -2.14151e-08 6.58388e-08
7.09774e-06 -1.80672e-08 7.4216e-08
-8.05194e-11 1.53176e-05 -1.01294e-06
1.30114e-08 1.43662e-05 -9.51241e-07
2.27066e-08 1.29247e-05 -8.56915e-07
5.9903e-06 -1.51406e-08 1.65282e-07
6.40554e-06 -1.85447e-08 1.23674e-07
6.80881e-06 -2.21881e-08 6.9654e-08
7.17031e-06 -1.51339e-08 8.68207e-08
5.73015e-09 1.51279e-05 -9.99454e-07
1.68929e-08 1.41798e-05 -9.40484e-07
2.48127e-08 1.27485e-05 -8.51407e-07
5.83267e-06 -1.34899e-08 1.54594e-07
6.25205e-06 -1.75022e-08 1.23445e-07
6.66805e-06 -1.97165e-08 6.7976e-08
7.04954e-06 -1.05769e-08 9.3585e-08
9.95597e-09 1.49458e-05 -1.00479e-06
1.99575e-08 1.39941e-05 -9.42941e-07
2.66227e-08 1.25674e-05 -8.55197e-07
5.59814e-06 -1.38766e-08 1.60704e-07
6.00174e-06 -1.65712e-08 1.21743e-07
6.41452e-06 -1.82189e-08 6.80021e-08
6.80406e-06 -7.79923e-09 9.60153e-08
1.26651e-08 1.4765e-05 -1.01935e-06
2.23302e-08 1.38032e-05 -9.47784e-07
2.827e-08 1.2376e-05 -8.56454e-07
5.22412e-06 -1.44885e-08 1.50852e-07
5.58693e-06 -1.65692e-08 1.14162e-07
5.97343e-06 -1.76792e-08 6.37207e-08
6.35343e-06 -6.90754e-09 9.12261e-08
1.44463e-08 1.45964e-05 -1.03928e-06
2.39514e-08 1.36182e-05 -9.55353e-07
2.91189e-08 1.21839e-05 -8.59113e-07
4.81754e-06 -1.63102e-08 1.39308e-07
5.11263e-06 -1.68266e-08 9.85866e-08
5.44737e-06 -1.81859e-08 5.80497e-08
5.79349e-06 -7.41692e-09 8.24901e-08
1.72396e-08 1.44431e-05 -1.0253e-06
2.47138e-08 1.34501e-05 -9.64952e-07
2.91756e-08 1.20018e-05 -8.61711e-07
4.65606e-06 -1.99707e-08 1.39379e-07
4.87036e-06 -2.08931e-08 1.02639e-07
5.1333e-06 -2.09555e-08 5.9332e-08
5.42626e-06 -1.13943e-08 7.9871e-08
3.46914e-08 1.3741e-05 -8.60792e-07
4.73776e-08 1.44905e-05 -8.90236e-07
2.2426e-08 1.22764e-05 -7.82993e-07
4.27874e-06 -1.49657e-08 -1.00108e-07
4.27553e-06 -1.80318e-08 -2.87004e-08
4.3275e-06 -1.13038e-08 -1.94319e-07
5.75862e-08 1.44716e-05 -8.08254e-07
4.7568e-08 1.3753e-05 -8.05875e-07
3.52811e-08 1.23127e-05 -7.4412e-07
4.44543e-06 -1.24277e-08 -9.6944e-08
4.33012e-06 -1.53959e-08 -2.0765e-08
4.58452e-06 -9.21037e-09 -2.00594e-07
6.67924e-08 1.45185e-05 -7.54733e-07
5.84111e-08 1.38263e-05 -7.52204e-07
4.68211e-08 1.23999e-05 -6.94348e-07
4.93815e-06 -1.18748e-08 -1.00798e-07
4.73125e-06 -1.5124e-08 -1.30989e-08
5.13612e-06 -8.09062e-09 -2.21666e-07
7.08771e-08 1.4622e-05 -7.4422e-07
6.39445e-08 1.3944e-05 -7.43883e-07
5.32113e-08 1.25161e-05 -6.88446e-07
5.61726e-06 -1.60602e-08 -1.17614e-08
5.87663e-06 -1.31277e-08 -1.19685e-07
6.08272e-06 -8.74448e-09 -2.67676e-07
6.77063e-08 1.47666e-05 -7.82069e-07
5.07162e-08 1.26322e-05 -7.26757e-07
6.15135e-08 1.40853e-05 -7.85867e-07
7.07497e-06 -2.1357e-08 -1.06017e-08
7.32196e-06 -1.79964e-08 -1.51211e-07
7.46179e-06 -1.28946e-08 -3.39103e-07
4.94364e-08 1.42136e-05 -8.58785e-07
5.32654e-08 1.49237e-05 -8.62029e-07
4.27749e-08 1.2711e-05 -7.99902e-07
9.34533e-06 -2.3612e-08 -2.01655e-07
9.20189e-06 -2.98498e-08 -1.05034e-08
9.31992e-06 -1.85136e-08 -4.47861e-07
2.5798e-08 1.43194e-05 -9.56857e-07
2.99426e-08 1.33018e-05 -8.86008e-07
3.16099e-08 1.18393e-05 -7.84297e-07
4.37323e-06 -2.28175e-08 1.43457e-07
4.4761e-06 -2.33839e-08 1.0511e-07
4.63887e-06 -2.31051e-08 6.32093e-08
4.84663e-06 -1.37327e-08 7.64805e-08
3.61147e-08 1.428e-05 -8.7064e-07
3.67044e-08 1.32291e-05 -8.04328e-07
3.49828e-08 1.17381e-05 -7.10284e-07
4.30727e-06 -2.05922e-08 1.50115e-07
4.27917e-06 -2.01731e-08 1.1164e-07
4.31699e-06 -1.88274e-08 7.2385e-08
4.41765e-06 -1.18948e-08 7.01911e-08
4.68028e-08 1.43149e-05 -7.67716e-07
4.35201e-08 1.32263e-05 -7.08688e-07
3.91856e-08 1.16977e-05 -6.31042e-07
4.60117e-06 -2.16077e-08 1.63942e-07
4.44006e-06 -2.00705e-08 1.23629e-07
4.34319e-06 -1.84049e-08 8.45941e-08
4.32729e-06 -1.4435e-08 6.58761e-08
5.5325e-08 1.44099e-05 -7.17177e-07
4.94393e-08 1.32847e-05 -6.66271e-07
4.09946e-08 1.17176e-05 -5.9037e-07
5.41523e-06 -2.81175e-08 2.03903e-07
5.13192e-06 -2.34089e-08 1.52059e-07
4.90086e-06 -2.00028e-08 1.07542e-07
4.76054e-06 -1.99633e-08 6.68988e-08
5.89456e-08 1.45545e-05 -7.30623e-07
5.06943e-08 1.34005e-05 -6.75705e-07
3.99162e-08 1.17969e-05 -5.98936e-07
6.86124e-06 -3.76026e-08 2.5912e-07
6.49138e-06 -3.19136e-08 2.02894e-07
6.14808e-06 -2.54646e-08 1.49879e-07
5.58761e-08 1.47288e-05 -8.17381e-07
4.5118e-08 1.35626e-05 -7.50125e-07
3.41031e-08 1.19267e-05 -6.6967e-07
9.06771e-06 -5.86691e-08 3.41526e-07
8.67081e-06 -4.83689e-08 2.84973e-07
8.25943e-06 -3.3712e-08 2.25052e-07
7.91671e-06 -4.13394e-08 1.01127e-07
5.89592e-06 -2.90881e-08 7.5361e-08
-2.049e-08 2.45702e-05 -1.58306e-06
-5.12705e-08 2.60227e-05 -1.55241e-06
4.3008e-08 1.11894e-05 -7.28707e-07
2.83368e-08 1.1706e-05 -7.46861e-07
1.16838e-08 1.70495e-05 -1.01027e-06
1.09579e-05 -5.44606e-09 -1.07599e-06
1.01142e-05 -9.73614e-09 -1.43212e-06
3.14968e-08 1.09353e-05 -8.08537e-07
1.68088e-08 1.13249e-05 -8.24331e-07
-9.09828e-09 1.65238e-05 -1.18318e-06
1.31527e-05 1.6148e-08 -1.30882e-06
1.185e-05 1.18277e-08 -1.70424e-06
1.03282e-05 -1.52537e-08 -1.91714e-06
1.45795e-08 1.04624e-05 -8.60335e-07
7.58545e-09 1.07342e-05 -8.6867e-07
-2.19654e-08 1.58081e-05 -1.22173e-06
1.53965e-05 4.63578e-08 -1.5571e-06
1.35704e-05 5.5918e-08 -1.98745e-06
1.15689e-05 3.98393e-08 -2.2172e-06
9.93606e-10 9.7261e-06 -8.48911e-07
-4.00005e-09 9.87723e-06 -8.50858e-07
-3.28882e-08 1.48683e-05 -1.22367e-06
1.7398e-05 7.72001e-08 -1.813e-06
1.50109e-05 8.22294e-08 -2.22794e-06
1.25232e-05 6.66866e-08 -2.44106e-06
-8.32874e-09 8.69459e-06 -7.74009e-07
-1.41869e-08 8.74746e-06 -7.71936e-07
-3.68052e-08 1.36908e-05 -1.15973e-06
1.88067e-05 1.07867e-07 -2.0513e-06
1.58827e-05 1.16835e-07 -2.42434e-06
1.29756e-05 1.07144e-07 -2.59663e-06
-7.57041e-09 7.34636e-06 -6.38866e-07
-1.24988e-08 7.34482e-06 -6.30912e-07
-2.56795e-08 1.22885e-05 -1.01338e-06
1.92127e-05 1.22459e-07 -2.21742e-06
1.5851e-05 1.46975e-07 -2.5197e-06
1.26714e-05 1.32034e-07 -2.59758e-06
-1.25666e-08 5.71477e-06 -5.06576e-07
-1.39586e-08 5.7263e-06 -4.83838e-07
-2.77851e-08 1.07549e-05 -8.66258e-07
1.43738e-08 2.32165e-05 -1.57188e-06
3.61556e-08 2.21228e-05 -1.3963e-06
3.0383e-06 1.97842e-08 -8.00186e-07
6.42623e-08 2.14674e-05 -1.08299e-06
-1.60264e-06 -1.84827e-08 4.30653e-07
9.28278e-08 2.14869e-05 -7.58986e-07
-7.60682e-06 -1.25321e-07 2.05442e-06
1.37328e-07 2.25156e-05 -3.36717e-07
-1.49719e-05 -2.90843e-07 4.05489e-06
2.23716e-07 2.48558e-05 3.02119e-07
1.82347e-05 1.27794e-07 -2.19712e-06
1.46054e-05 1.57081e-07 -2.44141e-06
1.13685e-05 1.4512e-07 -2.41606e-06
-1.13195e-08 3.96618e-06 -3.22008e-07
-1.88124e-08 9.18127e-06 -6.62124e-07
-1.02252e-08 3.85589e-06 -3.38526e-07
1.16268e-05 1.4124e-07 -2.06043e-06
8.6854e-06 1.33648e-07 -1.93069e-06
1.51849e-05 1.23293e-07 -2.00352e-06
-1.32657e-08 7.73413e-06 -4.86855e-07
-5.33511e-09 1.90398e-06 -1.5258e-07
-5.52821e-09 2.22443e-06 -1.61757e-07
4.41071e-06 7.60339e-08 -1.01112e-06
9.66009e-06 9.27733e-08 -1.31015e-06
6.60657e-06 9.10491e-08 -1.20626e-06
-6.42324e-09 6.64024e-06 -3.41436e-07
-1.05082e-10 4.63964e-08 -3.1176e-09
-1.29808e-09 7.123e-07 -4.30158e-08
-1.66984e-06 -3.19149e-08 3.91203e-07
1.22427e-06 1.43182e-08 -1.70624e-07
-7.72339e-07 -1.26323e-08 1.44099e-07
1.54536e-09 -1.46134e-06 7.18434e-08
1.04847e-10 -3.02349e-07 1.27483e-08
5.23141e-09 6.17191e-06 -2.10644e-07
-9.70107e-06 -2.08214e-07 2.30172e-06
-1.04727e-05 -1.50111e-07 1.47663e-06
-1.0747e-05 -2.03714e-07 2.02863e-06
-2.82735e-09 -2.30095e-06 5.14674e-08
-1.04758e-09 -4.95373e-07 8.15286e-09
2.25228e-08 6.6446e-06 -6.37323e-08
-2.56249e-05 -4.18831e-07 3.62107e-06
-2.34209e-05 -4.90604e-07 4.43714e-06
-1.97265e-05 -4.69919e-07 4.67246e-06
5.70562e-08 8.39352e-06 1.70729e-07
2.97423e-09 4.99601e-07 8.57227e-09
-9.69298e-09 -2.09559e-06 -2.39731e-08
3.33221e-08 1.42945e-05 -1.00316e-06
3.37009e-08 1.50658e-05 -1.01566e-06
2.99209e-08 1.27079e-05 -9.28598e-07
1.19205e-05 -2.47269e-08 -2.96842e-07
1.19933e-05 -3.32064e-08 -3.06582e-08
1.16137e-05 -1.87706e-08 -6.22183e-07
1.09001e-08 1.42715e-05 -1.25059e-06
7.08671e-09 1.51375e-05 -1.29684e-06
1.13425e-08 1.25686e-05 -1.13363e-06
1.49797e-05 -9.03496e-09 -3.95585e-07
1.53901e-05 -2.25169e-08 -6.46013e-08
1.42718e-05 -1.3949e-09 -7.90424e-07
-1.29103e-09 1.22436e-05 -1.2319e-06
-7.34778e-09 1.40862e-05 -1.40046e-06
-1.56798e-08 1.50816e-05 -1.47278e-06
1.70722e-05 5.16943e-08 -9.01611e-07
1.82839e-05 3.07752e-08 -4.6029e-07
1.91438e-05 8.86999e-09 -9.18652e-08
-3.70619e-08 1.48514e-05 -1.56007e-06
-1.14833e-08 1.16685e-05 -1.25218e-06
-2.40293e-08 1.36793e-05 -1.46603e-06
2.29558e-05 6.6164e-08 -1.94767e-07
1.97044e-05 1.12288e-07 -1.05852e-06
2.15259e-05 8.33887e-08 -5.7581e-07
-5.23453e-08 1.43581e-05 -1.57851e-06
-1.42343e-08 1.07942e-05 -1.18385e-06
-3.36572e-08 1.29891e-05 -1.44523e-06
2.63423e-05 1.01786e-07 -3.08817e-07
2.42431e-05 1.47677e-07 -7.33159e-07
2.17579e-05 1.63625e-07 -1.20995e-06
-6.51045e-08 1.3537e-05 -1.5188e-06
-1.16867e-08 9.5799e-06 -1.01978e-06
-3.71612e-08 1.1963e-05 -1.32084e-06
2.58984e-05 1.57334e-07 -8.26333e-07
2.86943e-05 1.06555e-07 -3.8898e-07
2.27476e-05 2.00396e-07 -1.3246e-06
4.328e-08 1.49056e-05 -1.02204e-06
3.34008e-08 1.37412e-05 -9.38196e-07
2.1601e-08 1.20955e-05 -8.28197e-07
1.2052e-05 -8.54556e-08 4.22946e-07
1.17147e-05 -6.98601e-08 3.87024e-07
1.13069e-05 -4.64449e-08 3.39782e-07
1.09189e-05 -6.1649e-08 1.89033e-07
1.82107e-08 1.50476e-05 -1.41846e-06
8.70292e-09 1.39246e-05 -1.30238e-06
-2.26451e-10 1.22756e-05 -1.15931e-06
1.57775e-05 -1.07023e-07 5.72407e-07
1.5598e-05 -7.97545e-08 5.2321e-07
1.52787e-05 -5.0539e-08 4.6844e-07
1.49436e-05 -8.08403e-08 3.27792e-07
-7.61802e-10 1.51111e-05 -1.64817e-06
-9.2511e-09 1.40522e-05 -1.52399e-06
-1.69455e-08 1.24418e-05 -1.35127e-06
1.9996e-05 -9.51125e-08 8.26154e-07
2.00792e-05 -7.08e-08 7.26799e-07
1.99423e-05 -4.29083e-08 6.16839e-07
1.97627e-05 -7.40368e-08 4.81041e-07
-1.97746e-08 1.50434e-05 -1.81308e-06
-2.72394e-08 1.40858e-05 -1.6894e-06
-3.28247e-08 1.25355e-05 -1.50026e-06
2.44312e-05 -7.09002e-08 1.08846e-06
2.49081e-05 -5.73777e-08 9.40989e-07
2.50765e-05 -3.90937e-08 7.74753e-07
2.51525e-05 -4.69152e-08 6.66683e-07
-4.33829e-08 1.39581e-05 -1.78552e-06
-4.68281e-08 1.25059e-05 -1.59269e-06
-3.4481e-08 1.47697e-05 -1.88112e-06
3.01485e-05 -5.74006e-08 9.66266e-07
2.85579e-05 -5.29228e-08 1.36382e-06
2.95532e-05 -5.28969e-08 1.17176e-06
3.05792e-05 -3.26777e-08 8.51298e-07
-5.78543e-08 1.22462e-05 -1.59314e-06
-4.11817e-08 1.41601e-05 -1.80334e-06
-5.07723e-08 1.35408e-05 -1.72991e-06
3.16726e-05 -5.68046e-08 1.52976e-06
3.3281e-05 -7.92796e-08 1.34078e-06
3.44107e-05 -9.76485e-08 1.10931e-06
3.52757e-05 -9.69047e-08 1.0613e-06
-6.77824e-08 1.23731e-05 -1.35054e-06
-3.39155e-08 1.0574e-05 -1.10147e-06
-5.99633e-09 8.02174e-06 -7.80646e-07
2.59631e-05 1.65807e-07 -8.95936e-07
2.94339e-05 1.14957e-07 -5.23548e-07
2.22224e-05 2.01224e-07 -1.31099e-06
-2.59162e-08 8.82792e-06 -7.83309e-07
-6.32332e-08 1.08337e-05 -1.06246e-06
1.07034e-09 6.14924e-06 -4.78324e-07
2.34283e-05 1.62288e-07 -9.44826e-07
2.7418e-05 1.17181e-07 -6.25918e-07
1.93141e-05 1.85052e-07 -1.26733e-06
-1.85933e-08 6.81121e-06 -5.40466e-07
-5.41903e-08 8.9819e-06 -7.974e-07
3.14866e-09 4.08264e-06 -2.79744e-07
1.76612e-05 1.51168e-07 -8.2696e-07
2.19038e-05 1.22337e-07 -5.91839e-07
1.3504e-05 1.53263e-07 -1.00733e-06
-9.35813e-09 4.66547e-06 -3.00757e-07
-3.96823e-08 6.92551e-06 -5.13501e-07
3.9697e-09 1.99221e-06 -1.0582e-07
1.20789e-05 8.95887e-08 -3.47856e-07
4.24995e-06 5.82334e-08 -3.41743e-07
7.98325e-06 8.0936e-08 -4.10891e-07
-1.78161e-09 2.5929e-06 -1.12164e-07
-2.3416e-08 4.83347e-06 -2.56456e-07
4.18775e-10 1.10901e-07 -3.518e-09
-2.81872e-06 -2.66209e-08 8.75719e-08
-8.92711e-06 -1.46793e-07 7.49465e-07
-6.22088e-06 -7.80157e-08 3.36257e-07
-1.0025e-08 2.95389e-06 -7.38956e-08
-7.63871e-09 -1.25872e-06 5.57248e-09
9.97419e-10 8.72001e-07 -1.37729e-08
-2.63463e-05 -4.94012e-07 2.21907e-06
-2.53965e-05 -3.69849e-07 1.37998e-06
-2.33673e-05 -2.46864e-07 7.39835e-07
-1.57443e-08 -1.75047e-06 -5.20891e-08
-5.32843e-10 -1.46913e-07 -2.81748e-09
-2.3358e-09 1.61071e-06 1.56058e-08
-6.07538e-08 1.17221e-05 -1.40427e-06
-3.75804e-08 1.32205e-05 -1.53922e-06
-5.16447e-08 1.28289e-05 -1.52308e-06
3.31413e-05 -6.30168e-08 1.60423e-06
3.5423e-05 -1.1662e-07 1.40244e-06
3.71599e-05 -1.68679e-07 1.14668e-06
3.8644e-05 -1.29291e-07 1.00407e-06
-6.24159e-08 1.08985e-05 -1.09666e-06
-3.03558e-08 1.18988e-05 -1.08965e-06
-4.92037e-08 1.1769e-05 -1.14047e-06
3.16911e-05 -7.30639e-08 1.36791e-06
3.46215e-05 -1.379e-07 1.23191e-06
3.69791e-05 -2.04643e-07 1.03682e-06
3.90155e-05 -1.51939e-07 7.58171e-07
-2.62002e-08 1.02456e-05 -8.67531e-07
-4.71024e-08 1.03894e-05 -9.39004e-07
-6.28801e-08 9.77934e-06 -9.2715e-07
2.64657e-05 -4.22604e-08 9.6607e-07
2.99286e-05 -1.00387e-07 9.36979e-07
3.28382e-05 -1.65348e-07 8.54759e-07
3.54159e-05 -1.56467e-07 5.75852e-07
-1.79997e-08 8.34594e-06 -6.01032e-07
-3.94871e-08 8.7447e-06 -6.84765e-07
-5.70928e-08 8.40181e-06 -7.01132e-07
1.65138e-05 -4.15198e-09 5.50602e-07
2.02771e-05 -4.13944e-08 5.95781e-07
2.35665e-05 -8.91888e-08 5.9558e-07
2.64956e-05 -1.12066e-07 3.46804e-07
-7.41411e-09 6.34447e-06 -3.29869e-07
-2.75809e-08 6.95005e-06 -4.09455e-07
-4.58193e-08 6.85181e-06 -4.44514e-07
9.02576e-07 1.94786e-09 2.7911e-08
4.60791e-06 1.36145e-09 1.25444e-07
7.98936e-06 -1.23186e-08 1.86203e-07
1.10004e-05 -3.8853e-08 1.38811e-07
2.77635e-09 4.4554e-06 -1.01924e-07
-1.3817e-08 5.18714e-06 -1.56596e-07
-3.09674e-08 5.28099e-06 -1.94272e-07