# vtk DataFile Version 3.0
vtk output
ASCII
DATASET POLYDATA
POINTS 16766 float
0.184469 0.839943 -0.047531
0.184572 0.829945 -0.0470556
0.174132 0.845022 -0.0469308
0.184671 0.819956 -0.0465209
0.174233 0.835026 -0.0465211
0.163629 0.8401 -0.0464412
0.184753 0.809953 -0.0460153
0.174307 0.825025 -0.0461195
0.163737 0.830105 -0.0459491
0.153086 0.845196 -0.0460473
0.174391 0.815032 -0.0455954
0.153179 0.835199 -0.0456341
0.184845 0.799961 -0.0453747
0.163824 0.820117 -0.045469
0.153296 0.825198 -0.0451562
0.174452 0.805038 -0.0451418
0.163923 0.810117 -0.0449944
0.142716 0.840286 -0.0447497
0.184924 0.789966 -0.0447867
0.174553 0.795039 -0.0445567
0.164039 0.800122 -0.0444284
0.153403 0.815204 -0.0447083
0.142781 0.830289 -0.0444754
0.185028 0.779962 -0.0441622
0.174638 0.785041 -0.0440351
0.153521 0.805208 -0.0442185
0.164106 0.790126 -0.0440503
0.153658 0.795207 -0.0436544
0.132288 0.845369 -0.043904
0.142908 0.820299 -0.0440587
0.194911 0.844851 -0.0478058
0.195006 0.834854 -0.0472717
0.195102 0.824859 -0.0467086
0.195132 0.814863 -0.0461573
0.205345 0.839755 -0.047479
0.215855 0.844684 -0.0476503
0.236735 0.844549 -0.0474356
0.257321 0.844424 -0.0474057
0.215959 0.83469 -0.0470468
0.226393 0.839619 -0.0471776
0.247087 0.83949 -0.0471236
0.267603 0.839378 -0.0469016
0.28799 0.839276 -0.0469392
0.277794 0.844327 -0.0471993
0.20548 0.829766 -0.0469466
0.226472 0.829627 -0.0465721
0.247144 0.829497 -0.0464775
0.236815 0.834564 -0.0468067
0.257365 0.834436 -0.0467785
0.277829 0.834334 -0.046596
0.20558 0.819775 -0.0463439
0.216072 0.8247 -0.0464456
0.236874 0.824571 -0.0461819
0.257415 0.824445 -0.0461152
0.267637 0.82939 -0.0462808
0.288012 0.829288 -0.0463255
0.216154 0.814709 -0.0458012
0.226554 0.819643 -0.0459231
0.24719 0.819514 -0.0458195
0.288036 0.819299 -0.0457142
0.277853 0.824347 -0.0459635
0.195188 0.804868 -0.0455624
0.205709 0.809783 -0.0457171
0.257455 0.814458 -0.0454602
0.277884 0.814353 -0.0453563
0.236931 0.814587 -0.0455287
0.267665 0.819406 -0.0456462
0.205832 0.799789 -0.0450391
0.216262 0.80472 -0.0451583
0.226636 0.809653 -0.0452897
0.247235 0.809524 -0.0451826
0.267701 0.809411 -0.0450288
0.288051 0.809308 -0.0451043
0.195357 0.794876 -0.0449033
0.216355 0.794726 -0.0445165
0.226717 0.799661 -0.0446618
0.247298 0.799535 -0.044537
0.288079 0.799319 -0.0445024
0.237 0.804598 -0.0448716
0.257498 0.804471 -0.0448126
0.277907 0.804365 -0.0447415
0.195486 0.784879 -0.04428
0.205972 0.789801 -0.0443773
0.237063 0.794605 -0.0442255
0.257551 0.794479 -0.0441996
0.277945 0.794374 -0.0441346
0.267737 0.799425 -0.0444127
0.206068 0.779804 -0.0437636
0.21646 0.784739 -0.0438564
0.226803 0.789674 -0.0439928
0.247356 0.789547 -0.043897
0.267785 0.789432 -0.0438063
0.288108 0.78933 -0.0438995
0.318541 0.794217 -0.0445657
0.338775 0.794149 -0.0445874
0.298174 0.794288 -0.0443635
0.328689 0.789188 -0.0442737
0.298244 0.784299 -0.0437543
0.318612 0.784232 -0.0439086
0.338822 0.784167 -0.043937
0.308395 0.789274 -0.0441006
0.3792 0.794035 -0.0447483
0.379213 0.784044 -0.0441234
0.369076 0.789067 -0.044289
0.389282 0.789027 -0.0443096
0.358985 0.794093 -0.0444552
0.389289 0.779036 -0.0437066
0.35901 0.784103 -0.0438366
0.348921 0.789134 -0.0441104
0.297984 0.844223 -0.0473888
0.297994 0.834234 -0.0467769
0.298011 0.824242 -0.0461562
0.338573 0.844071 -0.0478457
0.328449 0.839113 -0.0475395
0.318271 0.844157 -0.0477963
0.308051 0.839191 -0.0472544
0.31831 0.834165 -0.0471758
0.338615 0.83409 -0.0471899
0.3081 0.829203 -0.046626
0.328503 0.829127 -0.0468782
0.328539 0.819138 -0.0462197
0.318378 0.824183 -0.0465128
0.338658 0.824107 -0.0465324
0.318424 0.81419 -0.0458812
0.33869 0.814118 -0.0458984
0.308174 0.819227 -0.0459803
0.298019 0.814253 -0.0455604
0.328591 0.809156 -0.0455651
0.298077 0.804265 -0.0449552
0.318491 0.804207 -0.0452151
0.338735 0.804138 -0.0452369
0.308251 0.809243 -0.0453453
0.308305 0.799258 -0.0447216
0.328645 0.799177 -0.044902
0.379181 0.843961 -0.047975
0.368993 0.838991 -0.0474481
0.389283 0.838951 -0.047535
0.358883 0.84402 -0.0476678
0.379182 0.833979 -0.0473236
0.348768 0.839059 -0.0473982
0.379187 0.823989 -0.046682
0.348791 0.829069 -0.0467697
0.369005 0.829009 -0.0468262
0.389278 0.828968 -0.0468996
0.358905 0.834038 -0.0470047
0.389281 0.818982 -0.046253
0.358921 0.824046 -0.0463602
0.379188 0.814005 -0.0460419
0.348821 0.819089 -0.0460941
0.369017 0.819029 -0.0461769
0.379196 0.804017 -0.0453993
0.348847 0.809098 -0.0454432
0.35894 0.814063 -0.0457241
0.369033 0.809039 -0.0455488
0.389277 0.808998 -0.0455995
0.358959 0.804075 -0.0450877
0.348881 0.799118 -0.0447614
0.369051 0.799058 -0.0448985
0.389274 0.799017 -0.0449378
0.399318 0.794002 -0.0446136
0.419523 0.793973 -0.0448248
0.439645 0.793959 -0.0448002
0.41953 0.783985 -0.044191
0.439645 0.783971 -0.0441577
0.409445 0.788998 -0.0443637
0.429588 0.788975 -0.0444487
0.39935 0.784022 -0.0439632
0.409455 0.779009 -0.0437585
0.42959 0.778986 -0.0438328
0.459753 0.793947 -0.0448113
0.479857 0.793948 -0.0447231
0.499947 0.793954 -0.0447796
0.459747 0.783957 -0.0441811
0.499927 0.783964 -0.0441507
0.449688 0.788964 -0.0444051
0.469793 0.788956 -0.0444164
0.489883 0.788959 -0.0443996
0.449686 0.778975 -0.0437802
0.469785 0.778966 -0.0438003
0.489868 0.778969 -0.0437874
0.479822 0.783966 -0.0440825
0.409429 0.79898 -0.0450099
0.42959 0.798957 -0.0450999
0.419515 0.803953 -0.0454781
0.439655 0.803939 -0.0454586
0.399295 0.803989 -0.0452589
0.409417 0.808966 -0.0456602
0.429589 0.808943 -0.045745
0.399261 0.81397 -0.0459132
0.419509 0.813942 -0.0461062
0.439656 0.813927 -0.0460949
0.39929 0.84393 -0.0478438
0.399284 0.833942 -0.0472
0.399263 0.82396 -0.0465459
0.419494 0.843895 -0.0480181
0.439672 0.84388 -0.0480196
0.40937 0.838916 -0.0475802
0.429592 0.838893 -0.047674
0.419498 0.833912 -0.0473862
0.439664 0.833898 -0.0473841
0.4195 0.823925 -0.0467403
0.439662 0.82391 -0.0467346
0.409387 0.828935 -0.0469438
0.429591 0.828912 -0.0470326
0.409396 0.818949 -0.0463012
0.429589 0.818927 -0.0463873
0.449698 0.798945 -0.045062
0.469819 0.798938 -0.0450593
0.489924 0.798942 -0.045042
0.45977 0.803927 -0.0454568
0.479867 0.803935 -0.0453596
0.469828 0.808921 -0.0457118
0.449698 0.808931 -0.0457133
0.48994 0.808929 -0.045684
0.459777 0.813916 -0.0460821
0.479902 0.813917 -0.0459985
0.500012 0.813925 -0.0460535
0.459831 0.84387 -0.0479715
0.479985 0.843872 -0.0478959
0.449737 0.838881 -0.0476506
0.469896 0.838876 -0.0476069
0.490038 0.838881 -0.0475904
0.459808 0.833887 -0.0473491
0.479951 0.833889 -0.0472707
0.459799 0.823899 -0.0467114
0.479938 0.823901 -0.0466291
0.44972 0.8289 -0.0470083
0.469867 0.828894 -0.0469778
0.489998 0.828898 -0.0469622
0.449712 0.818915 -0.0463604
0.469855 0.818909 -0.0463387
0.489982 0.818913 -0.0463232
0.5 0.843881 -0.0479352
0.500004 0.833897 -0.0473146
0.520143 0.793948 -0.0447196
0.540246 0.793947 -0.0448086
0.540252 0.783958 -0.0441809
0.510116 0.78896 -0.0443955
0.530206 0.788956 -0.044413
0.550311 0.788964 -0.0443997
0.510131 0.778969 -0.0437901
0.530215 0.778966 -0.0438029
0.550314 0.778975 -0.0437812
0.520178 0.783966 -0.0440824
0.560354 0.79396 -0.0447957
0.580476 0.793974 -0.0448205
0.600681 0.794002 -0.0446106
0.560355 0.783971 -0.0441557
0.580469 0.783985 -0.0441882
0.570411 0.788976 -0.0444438
0.590554 0.788998 -0.04436
0.570409 0.778986 -0.0438326
0.590544 0.779009 -0.0437584
0.600649 0.784022 -0.0439621
0.49998 0.823909 -0.0466743
0.510075 0.798943 -0.0450378
0.53018 0.798938 -0.0450567
0.550302 0.798946 -0.0450576
0.500006 0.803936 -0.0454162
0.540229 0.803927 -0.0454553
0.520132 0.803936 -0.0453564
0.530171 0.808921 -0.04571
0.51006 0.808929 -0.0456796
0.550301 0.808932 -0.0457097
0.520097 0.813918 -0.0459958
0.540223 0.813916 -0.0460813
0.520014 0.843872 -0.0478928
0.540169 0.84387 -0.0479698
0.509961 0.838881 -0.0475868
0.530104 0.838876 -0.0476048
0.550262 0.838881 -0.0476444
0.520048 0.833889 -0.0472682
0.540192 0.833887 -0.0473477
0.520061 0.823901 -0.0466265
0.540201 0.823899 -0.0467105
0.510001 0.828898 -0.0469591
0.530133 0.828894 -0.0469758
0.550279 0.8289 -0.0470029
0.510017 0.818914 -0.0463191
0.530144 0.818909 -0.0463371
0.550288 0.818915 -0.0463565
0.57041 0.798957 -0.0450965
0.59057 0.79898 -0.045007
0.560344 0.803939 -0.0454552
0.580484 0.803953 -0.0454755
0.600704 0.80399 -0.0452565
0.57041 0.808943 -0.045743
0.590582 0.808966 -0.0456579
0.560344 0.813928 -0.046092
0.580491 0.813942 -0.0461043
0.600739 0.813971 -0.0459108
0.560327 0.84388 -0.0480147
0.580506 0.843895 -0.0480153
0.570407 0.838893 -0.0476705
0.59063 0.838916 -0.0475781
0.560335 0.833898 -0.0473798
0.580501 0.833913 -0.0473835
0.560338 0.82391 -0.0467314
0.580499 0.823925 -0.0467383
0.570409 0.828912 -0.0470295
0.590612 0.828935 -0.0469416
0.57041 0.818927 -0.0463853
0.590603 0.818949 -0.0462986
0.60071 0.843931 -0.047842
0.600715 0.833943 -0.0471981
0.600736 0.82396 -0.0465439
0.620799 0.794035 -0.0447458
0.610716 0.789027 -0.0443065
0.630923 0.789067 -0.0442863
0.641014 0.794093 -0.0444527
0.610711 0.779036 -0.043706
0.620791 0.784051 -0.0441095
0.640989 0.784103 -0.0438351
0.651078 0.789135 -0.0441079
0.661224 0.794149 -0.0445849
0.681458 0.794218 -0.0445652
0.67131 0.789188 -0.0442731
0.701825 0.794288 -0.0443632
0.661177 0.784168 -0.0439351
0.681388 0.784233 -0.0439078
0.691604 0.789275 -0.0441003
0.701755 0.7843 -0.0437538
0.620818 0.843962 -0.0479738
0.610716 0.838951 -0.0475335
0.631006 0.838992 -0.047447
0.641117 0.84402 -0.0476667
0.620817 0.833979 -0.0473223
0.651231 0.839059 -0.0473975
0.620812 0.823989 -0.0466806
0.610721 0.828969 -0.046898
0.630994 0.829009 -0.0468247
0.651208 0.829069 -0.0467686
0.641095 0.834038 -0.0470038
0.610718 0.818982 -0.0462512
0.641078 0.824047 -0.0463589
0.620811 0.814006 -0.0460403
0.630983 0.819029 -0.0461754
0.651178 0.819089 -0.0460929
0.620803 0.804017 -0.0453973
0.610722 0.808999 -0.0455976
0.630966 0.809039 -0.0455466
0.641059 0.814064 -0.0457227
0.651152 0.809098 -0.0454412
0.64104 0.804075 -0.0450855
0.610725 0.799018 -0.0449353
0.630948 0.799059 -0.044896
[...]
POINT_DATA 16766
VECTORS alpha float
1.68545e-06 -1.23832e-08 7.06252e-08
1.65062e-06 -1.18374e-08 7.94291e-08
-2.81318e-07 1.9312e-05 -1.35366e-06
1.62026e-06 -1.14104e-08 8.63454e-08
-2.67401e-07 1.93481e-05 -1.34738e-06
1.60604e-06 -1.14634e-08 1.35874e-08
1.58403e-06 -1.09139e-08 9.06268e-08
-2.40011e-07 1.93841e-05 -1.34356e-06
1.57328e-06 -1.10369e-08 2.30271e-08
-2.98559e-07 1.83319e-05 -1.27808e-06
-2.1507e-07 1.94185e-05 -1.29634e-06
-2.88562e-07 1.83686e-05 -1.27361e-06
1.5574e-06 -1.05385e-08 9.1792e-08
1.54467e-06 -1.06087e-08 3.36072e-08
-2.71501e-07 1.84041e-05 -1.28247e-06
-1.94241e-07 1.94511e-05 -1.29298e-06
1.5099e-06 -1.01306e-08 4.10099e-08
1.52624e-06 -1.07002e-08 -5.55245e-08
1.52192e-06 -1.0124e-08 9.46464e-08
-1.91406e-07 1.94866e-05 -1.2938e-06
1.48537e-06 -9.76345e-09 4.47171e-08
-2.61252e-07 1.84392e-05 -1.23782e-06
1.49806e-06 -1.03622e-08 -3.73798e-08
1.48739e-06 -9.70483e-09 9.32097e-08
-1.86572e-07 1.95197e-05 -1.29515e-06
-2.41758e-07 1.84715e-05 -1.23014e-06
1.45282e-06 -9.40425e-09 5.44161e-08
-2.46326e-07 1.85059e-05 -1.27317e-06
-2.68859e-07 1.64892e-05 -1.1073e-06
1.47137e-06 -9.96016e-09 -2.42052e-08
-1.99584e-07 1.91257e-05 -1.33411e-06
-1.82256e-07 1.91608e-05 -1.32289e-06
-1.69486e-07 1.91959e-05 -1.33304e-06
-1.50714e-07 1.92306e-05 -1.30654e-06
1.74673e-06 -1.18833e-08 7.64164e-08
-1.12574e-07 1.79679e-05 -1.23302e-06
-7.16141e-08 1.62397e-05 -1.08453e-06
-5.41597e-08 1.43239e-05 -9.70219e-07
-1.10562e-07 1.80023e-05 -1.24593e-06
1.78635e-06 -1.04816e-08 5.57812e-08
1.83128e-06 -9.26923e-09 3.96457e-08
1.87519e-06 -8.54004e-09 3.14932e-08
1.91752e-06 -7.17228e-09 2.59056e-08
-3.34986e-08 1.24903e-05 -8.36547e-07
1.70544e-06 -1.13047e-08 8.05332e-08
1.74512e-06 -1.00694e-08 5.59039e-08
1.7901e-06 -9.02636e-09 4.03672e-08
-6.85481e-08 1.62702e-05 -1.08702e-06
-5.35934e-08 1.43509e-05 -9.7877e-07
-3.13517e-08 1.25159e-05 -8.36721e-07
1.67146e-06 -1.07997e-08 8.25045e-08
-1.10383e-07 1.80364e-05 -1.25325e-06
-6.59346e-08 1.6302e-05 -1.0866e-06
-5.24146e-08 1.43795e-05 -9.73241e-07
1.83304e-06 -8.27126e-09 3.2184e-08
1.87511e-06 -6.95846e-09 2.62647e-08
-1.10887e-07 1.80699e-05 -1.24767e-06
1.70912e-06 -9.71376e-09 5.55784e-08
1.75399e-06 -8.73536e-09 4.04435e-08
1.83807e-06 -6.6071e-09 2.62284e-08
-2.90313e-08 1.25413e-05 -8.32786e-07
-1.37821e-07 1.92634e-05 -1.31187e-06
1.63087e-06 -1.03488e-08 8.2969e-08
-5.24288e-08 1.44057e-05 -9.75705e-07
-2.6848e-08 1.25658e-05 -8.29906e-07
-6.63634e-08 1.63327e-05 -1.09106e-06
1.79654e-06 -7.96537e-09 3.18367e-08
1.6024e-06 -9.95626e-09 8.16314e-08
-1.09107e-07 1.8101e-05 -1.24867e-06
1.66883e-06 -9.38486e-09 5.52536e-08
1.71387e-06 -8.51511e-09 4.05921e-08
1.75679e-06 -7.67477e-09 3.14788e-08
1.79818e-06 -6.42507e-09 2.58786e-08
-1.48675e-07 1.92981e-05 -1.32444e-06
-1.11577e-07 1.81331e-05 -1.23959e-06
1.64035e-06 -9.05602e-09 5.4529e-08
1.68522e-06 -8.24965e-09 4.04087e-08
1.7682e-06 -6.14051e-09 2.58347e-08
-6.35439e-08 1.63619e-05 -1.10041e-06
-5.62086e-08 1.44319e-05 -9.80531e-07
-2.92838e-08 1.25896e-05 -8.32488e-07
-1.52559e-07 1.93313e-05 -1.32155e-06
1.56342e-06 -9.61257e-09 8.03101e-08
-6.41236e-08 1.6391e-05 -1.09975e-06
-5.65346e-08 1.44588e-05 -9.7765e-07
-2.87108e-08 1.26138e-05 -8.29898e-07
1.72726e-06 -7.41654e-09 3.12057e-08
1.52797e-06 -9.2457e-09 8.01035e-08
-1.1436e-07 1.81634e-05 -1.22822e-06
1.60157e-06 -8.78696e-09 5.33565e-08
1.64602e-06 -8.03447e-09 3.92443e-08
1.68783e-06 -7.1057e-09 3.09025e-08
1.7283e-06 -5.97344e-09 2.48066e-08
-1.16213e-08 9.56844e-06 -6.58566e-07
-8.48789e-09 8.339e-06 -5.79555e-07
-9.12892e-09 1.09762e-05 -7.22093e-07
1.79693e-06 -4.3707e-09 2.65192e-08
-1.07295e-08 1.09969e-05 -7.27499e-07
-1.25261e-08 9.58657e-06 -6.61995e-07
-9.56283e-09 8.3545e-06 -5.81755e-07
1.76089e-06 -4.66585e-09 2.03891e-08
-1.08951e-08 6.17111e-06 -4.25596e-07
-1.07041e-08 6.18322e-06 -4.26018e-07
1.84755e-06 -3.0413e-09 1.78196e-08
1.87379e-06 -2.80761e-09 1.61896e-08
-4.7369e-09 7.22487e-06 -5.02369e-07
1.8308e-06 -2.69117e-09 1.64351e-08
-5.015e-09 7.23893e-06 -5.00616e-07
1.82101e-06 -3.92329e-09 1.8421e-08
-8.45495e-09 1.08665e-05 -7.22343e-07
-6.3695e-09 1.08886e-05 -7.22504e-07
-4.54447e-09 1.09118e-05 -7.16994e-07
-1.84968e-09 8.25304e-06 -5.73723e-07
1.99917e-06 -5.27175e-09 2.22498e-08
-4.41749e-09 9.46899e-06 -6.5115e-07
1.96105e-06 -6.0265e-09 1.39959e-08
-4.87294e-09 9.48965e-06 -6.49496e-07
-2.35496e-09 8.27031e-06 -5.73595e-07
1.91641e-06 -5.70172e-09 1.47967e-08
1.9537e-06 -5.14223e-09 2.32465e-08
1.9143e-06 -4.95172e-09 2.41034e-08
-6.04428e-09 9.51002e-06 -6.49573e-07
-3.38981e-09 8.28814e-06 -5.76582e-07
-6.5505e-09 9.52977e-06 -6.48513e-07
-4.0911e-09 8.3052e-06 -5.75462e-07
1.87593e-06 -5.33061e-09 1.57724e-08
-2.74494e-09 1.09331e-05 -7.12463e-07
1.87108e-06 -4.73254e-09 2.50639e-08
-6.27819e-09 1.09549e-05 -7.14732e-07
-9.64272e-09 9.54901e-06 -6.53578e-07
-6.68965e-09 8.32192e-06 -5.7502e-07
1.8335e-06 -5.07963e-09 1.76548e-08
1.80306e-06 -4.86105e-09 1.88344e-08
1.83907e-06 -4.57986e-09 2.5774e-08
-9.81157e-09 6.10581e-06 -4.22357e-07
2.05306e-06 -3.62496e-09 1.39364e-08
2.08199e-06 -3.21859e-09 1.8244e-08
-7.90674e-10 7.14904e-06 -5.05736e-07
-9.18929e-09 6.11896e-06 -4.22602e-07
2.0252e-06 -4.6661e-09 1.64346e-08
-9.36528e-09 6.13277e-06 -4.22399e-07
1.98015e-06 -4.45369e-09 1.74708e-08
2.00683e-06 -3.49963e-09 1.49247e-08
2.0353e-06 -3.15064e-09 1.79329e-08
-1.42101e-10 7.16428e-06 -5.0566e-07
1.99403e-06 -3.00647e-09 1.78214e-08
-5.60979e-10 7.18038e-06 -5.06019e-07
-9.21608e-09 6.14542e-06 -4.23145e-07
1.93911e-06 -4.29741e-09 1.76329e-08
1.96543e-06 -3.36906e-09 1.54945e-08
-9.79546e-09 6.15845e-06 -4.22316e-07
1.89659e-06 -4.11561e-09 1.78812e-08
-9.00061e-10 7.19506e-06 -5.04815e-07
1.92272e-06 -3.2426e-09 1.6217e-08
1.95016e-06 -2.95617e-09 1.71267e-08
-2.51055e-09 7.21016e-06 -5.01492e-07
1.86441e-06 -4.02606e-09 1.8083e-08
1.89056e-06 -3.18587e-09 1.67853e-08
1.91763e-06 -2.93766e-09 1.63669e-08
-4.62252e-09 5.14051e-06 -3.6036e-07
9.08513e-11 4.115e-06 -2.89996e-07
-2.0584e-09 3.08738e-06 -2.18866e-07
-1.49919e-10 4.12325e-06 -2.89763e-07
-1.99823e-09 3.09361e-06 -2.18529e-07
1.89042e-06 -1.57542e-09 1.11189e-08
1.90757e-06 -1.04098e-09 1.3764e-08
-4.57376e-09 5.15057e-06 -3.59452e-07
1.84683e-06 -1.45938e-09 1.16964e-08
1.86365e-06 -1.00051e-09 1.42325e-08
-6.96736e-10 2.05832e-06 -1.45412e-07
-2.36819e-10 1.029e-06 -7.29929e-08
-6.51293e-14 1.05063e-10 -7.48607e-12
-6.63047e-10 2.06249e-06 -1.45231e-07
-5.03699e-15 1.03624e-10 -7.36116e-12
1.91935e-06 -7.10869e-10 8.85621e-09
1.92708e-06 1.08047e-10 8.51315e-09
1.93021e-06 5.55301e-10 -5.40484e-09
1.87504e-06 -6.99893e-10 8.29212e-09
1.88255e-06 8.18804e-11 8.23729e-09
1.88558e-06 4.78877e-10 -5.9278e-09
-1.56176e-10 1.03105e-06 -7.29868e-08
1.93566e-06 -1.6766e-09 1.0838e-08
1.95311e-06 -1.06102e-09 1.38733e-08
8.35235e-10 4.10635e-06 -2.88028e-07
-1.79529e-09 3.08087e-06 -2.17422e-07
-3.76138e-09 5.12946e-06 -3.59507e-07
1.96807e-06 -1.77217e-09 1.0194e-08
1.9856e-06 -1.11823e-09 1.35609e-08
-2.53519e-09 5.11858e-06 -3.59582e-07
1.72163e-09 4.09745e-06 -2.87239e-07
-1.31774e-09 3.07417e-06 -2.1684e-07
-3.43472e-09 5.08491e-06 -3.60906e-07
-2.79955e-09 5.0963e-06 -3.5904e-07
-2.65698e-09 5.10762e-06 -3.59573e-07
2.81536e-09 4.07046e-06 -2.87816e-07
-9.08657e-10 3.05388e-06 -2.16841e-07
2.10252e-06 -2.14032e-09 8.57896e-09
2.1211e-06 -1.26136e-09 1.34679e-08
2.30047e-09 4.07941e-06 -2.87846e-07
-9.63434e-10 3.06062e-06 -2.17003e-07
2.13992e-09 4.0888e-06 -2.86739e-07
-1.106e-09 3.06767e-06 -2.16431e-07
2.055e-06 -2.02164e-09 9.13119e-09
2.07321e-06 -1.23886e-09 1.34355e-08
2.01305e-06 -1.89533e-09 9.80049e-09
2.03082e-06 -1.1628e-09 1.34199e-08
1.9652e-06 -6.68109e-10 9.84449e-09
1.97312e-06 1.51009e-10 8.54792e-09
1.97632e-06 6.62382e-10 -5.28833e-09
-5.02834e-10 2.05394e-06 -1.44626e-07
-2.09314e-10 1.02676e-06 -7.26887e-08
2.00585e-06 1.4299e-10 8.36818e-09
1.99788e-06 -6.65298e-10 1.05341e-08
2.00923e-06 6.8777e-10 -5.35866e-09
-3.37287e-10 2.04943e-06 -1.44126e-07
-1.8743e-10 1.02452e-06 -7.23612e-08
-4.16406e-14 7.40582e-11 -5.25473e-12
-4.18428e-10 2.03586e-06 -1.43929e-07
-4.5338e-10 1.01772e-06 -7.21593e-08
2.13426e-06 -6.64735e-10 1.24293e-08
2.14262e-06 1.51256e-10 8.1271e-09
2.14599e-06 8.92879e-10 -4.78178e-09
-3.72821e-10 2.04037e-06 -1.43978e-07
-3.33158e-10 1.01998e-06 -7.22333e-08
-3.1192e-10 2.04508e-06 -1.4382e-07
-2.48503e-10 1.02235e-06 -7.21655e-08
2.08606e-06 -6.83814e-10 1.16373e-08
2.09435e-06 1.28829e-10 8.25353e-09
2.0977e-06 7.96809e-10 -5.15162e-09
2.04327e-06 -6.49245e-10 1.10896e-08
2.05135e-06 1.7286e-10 8.3827e-09
2.05457e-06 7.82144e-10 -5.36535e-09
2.01899e-14 9.62731e-11 -6.83889e-12
2.32908e-14 9.66043e-11 -6.85955e-12
-2.26266e-10 -1.02879e-06 7.29934e-08
-6.80298e-10 -2.05811e-06 1.45635e-07
-6.51799e-10 -2.06228e-06 1.45592e-07
1.93021e-06 -5.65037e-10 5.31441e-09
1.92708e-06 -1.16811e-10 -8.54914e-09
1.91934e-06 7.06279e-10 -8.91489e-09
1.88558e-06 -4.78184e-10 5.93379e-09
1.88255e-06 -8.04883e-11 -8.21294e-09
1.87502e-06 7.03076e-10 -8.16017e-09
-1.48682e-10 -1.03084e-06 7.3084e-08
-2.0501e-09 -3.08716e-06 2.19138e-07
1.0799e-10 -4.11477e-06 2.90585e-07
-4.7156e-09 -5.14034e-06 3.60694e-07
-1.99897e-09 -3.09339e-06 2.18986e-07
-1.46576e-10 -4.12304e-06 2.90472e-07
1.90756e-06 1.03487e-09 -1.37859e-08
1.8904e-06 1.57545e-09 -1.11854e-08
1.86363e-06 1.00275e-09 -1.41287e-08
1.84681e-06 1.45977e-09 -1.16434e-08
-4.62502e-09 -5.15037e-06 3.59814e-07
2.83666e-14 9.69659e-11 -6.86332e-12
1.97633e-06 -6.70709e-10 5.09677e-09
1.97316e-06 -1.58333e-10 -8.68069e-09
1.96525e-06 6.64423e-10 -9.96231e-09
2.59166e-14 9.98689e-11 -7.08453e-12
-4.89813e-10 -2.05374e-06 1.44812e-07
-2.01122e-10 -1.02655e-06 7.26769e-08
2.00601e-06 -1.49362e-10 -8.59676e-09
2.00927e-06 -6.94619e-10 5.06893e-09
1.99814e-06 6.61769e-10 -1.07097e-08
-1.82691e-10 -1.02438e-06 7.23244e-08
-3.2781e-10 -2.04928e-06 1.44215e-07
-4.48925e-10 -1.01753e-06 7.20706e-08
-4.05549e-10 -2.03567e-06 1.43854e-07
2.14599e-06 -8.99576e-10 4.60962e-09
2.14263e-06 -1.58706e-10 -8.26238e-09
2.13427e-06 6.5206e-10 -1.27912e-08
-3.2812e-10 -1.01979e-06 7.21559e-08
-3.58892e-10 -2.04018e-06 1.43925e-07
-2.43548e-10 -1.02216e-06 7.21094e-08
-3.00212e-10 -2.04489e-06 1.43842e-07
2.0977e-06 -8.01546e-10 5.02043e-09
2.09436e-06 -1.34267e-10 -8.34948e-09
2.08607e-06 6.73028e-10 -1.19404e-08
2.05452e-06 -7.88048e-10 5.0866e-09
2.05122e-06 -1.78699e-10 -8.60604e-09
2.04304e-06 6.42588e-10 -1.13161e-08
1.95319e-06 1.05619e-09 -1.39421e-08
1.93576e-06 1.67404e-09 -1.08916e-08
-1.78758e-09 -3.08066e-06 2.17611e-07
8.5231e-10 -4.10614e-06 2.88494e-07
-3.83873e-09 -5.1293e-06 3.59779e-07
1.98597e-06 1.11347e-09 -1.36768e-08
1.96854e-06 1.76624e-09 -1.02363e-08
-1.31245e-09 -3.07402e-06 2.16845e-07
1.7348e-09 -4.0973e-06 2.87457e-07
-2.5857e-09 -5.11846e-06 3.59787e-07
-8.94997e-10 -3.0537e-06 2.16608e-07
2.83743e-09 -4.07029e-06 2.87751e-07
2.12112e-06 1.25038e-09 -1.36797e-08
2.10252e-06 2.12331e-09 -8.64453e-09
-9.48726e-10 -3.06043e-06 2.16771e-07
2.32388e-09 -4.07924e-06 2.87778e-07
-1.09559e-09 -3.06749e-06 2.1632e-07
2.15901e-09 -4.08862e-06 2.86817e-07
2.07322e-06 1.22977e-09 -1.35931e-08
2.05501e-06 2.01097e-09 -9.20775e-09
2.0305e-06 1.15563e-09 -1.35573e-08
2.01264e-06 1.88628e-09 -9.87776e-09
-3.42709e-09 -5.08473e-06 3.60916e-07
-2.81147e-09 -5.09613e-06 3.59111e-07
-2.6882e-09 -5.10745e-06 3.59709e-07
-1.09833e-08 -6.17094e-06 4.25914e-07
1.87377e-06 2.81195e-09 -1.62429e-08
1.84752e-06 3.04988e-09 -1.78477e-08
-4.81415e-09 -7.22469e-06 5.02579e-07
1.83078e-06 2.69298e-09 -1.64048e-08
-1.10203e-08 -6.1827e-06 4.27705e-07
-5.01959e-09 -7.23874e-06 5.00772e-07
1.82098e-06 3.9364e-09 -1.84434e-08
-8.54228e-09 -8.33879e-06 5.7984e-07
-1.15439e-08 -9.56828e-06 6.58323e-07
1.7969e-06 4.36666e-09 -2.65422e-08
-9.06685e-09 -1.09761e-05 7.21924e-07
-9.51851e-09 -8.35428e-06 5.81905e-07
-1.25136e-08 -9.5864e-06 6.62041e-07
1.76085e-06 4.65907e-09 -2.04003e-08
-1.07103e-08 -1.09968e-05 7.27551e-07
-9.78184e-09 -6.10561e-06 4.22362e-07
2.082e-06 3.20715e-09 -1.82978e-08
2.05306e-06 3.61671e-09 -1.3979e-08
-7.26915e-10 -7.14884e-06 5.05548e-07
-9.18338e-09 -6.11877e-06 4.22673e-07
2.0252e-06 4.66324e-09 -1.6474e-08
-9.3832e-09 -6.13259e-06 4.22541e-07
2.03531e-06 3.14414e-09 -1.79965e-08
2.00683e-06 3.49733e-09 -1.49673e-08
1.98015e-06 4.45687e-09 -1.75088e-08
-1.06459e-10 -7.16408e-06 5.05566e-07
1.99353e-06 3.00131e-09 -1.78819e-08
-5.5809e-10 -7.18019e-06 5.0607e-07
-9.25737e-09 -6.14529e-06 4.23361e-07
1.96483e-06 3.36846e-09 -1.55233e-08
1.93842e-06 4.30141e-09 -1.76569e-08
-9.86388e-09 -6.15828e-06 4.22565e-07
1.95074e-06 2.95478e-09 -1.71611e-08
1.9234e-06 3.24478e-09 -1.62527e-08
-9.18935e-10 -7.19492e-06 5.04954e-07
1.89737e-06 4.12294e-09 -1.79158e-08
-2.56058e-09 -7.20998e-06 5.01596e-07
1.91774e-06 2.93939e-09 -1.64091e-08
1.89069e-06 3.19137e-09 -1.6815e-08
1.86455e-06 4.03605e-09 -1.81086e-08
-1.74197e-09 -8.2528e-06 5.7361e-07
1.9992e-06 5.27307e-09 -2.23175e-08
-4.33601e-09 -9.46885e-06 6.5082e-07
-2.28059e-09 -8.27008e-06 5.73587e-07
-4.79155e-09 -9.4895e-06 6.49181e-07
1.96108e-06 6.02392e-09 -1.4045e-08
1.95374e-06 5.14407e-09 -2.33125e-08
1.91644e-06 5.70118e-09 -1.48452e-08
1.91353e-06 4.94852e-09 -2.41503e-08
-3.35498e-09 -8.28792e-06 5.76734e-07
-5.97011e-09 -9.50988e-06 6.49323e-07
-4.08345e-09 -8.30503e-06 5.75712e-07
-6.47507e-09 -9.52966e-06 6.48267e-07
1.87507e-06 5.3245e-09 -1.58048e-08
-8.38224e-09 -1.08664e-05 7.22047e-07
-6.2982e-09 -1.08885e-05 7.22231e-07
-4.48343e-09 -1.09117e-05 7.16799e-07
1.87199e-06 4.73251e-09 -2.51225e-08
-2.68263e-09 -1.0933e-05 7.12276e-07
-6.71139e-09 -8.32172e-06 5.75185e-07
-9.56717e-09 -9.54885e-06 6.53332e-07
1.8345e-06 5.07747e-09 -1.76957e-08
-6.21708e-09 -1.09548e-05 7.14553e-07
1.83924e-06 4.57708e-09 -2.58125e-08
1.80324e-06 4.85553e-09 -1.88589e-08
-5.41336e-08 -1.43239e-05 9.70061e-07
-7.15269e-08 -1.62396e-05 1.08447e-06
-1.12475e-07 -1.79678e-05 1.23293e-06
1.74675e-06 1.18832e-08 -7.64176e-08
1.91755e-06 7.16663e-09 -2.59435e-08
1.87522e-06 8.53109e-09 -3.15243e-08
1.83131e-06 9.26731e-09 -3.96484e-08
1.78637e-06 1.04813e-08 -5.57826e-08
-3.34443e-08 -1.24902e-05 8.36303e-07
-1.10458e-07 -1.80022e-05 1.24583e-06
1.79013e-06 9.02619e-09 -4.03702e-08
1.74515e-06 1.00701e-08 -5.59079e-08
-3.13002e-08 -1.25159e-05 8.36507e-07
-5.35715e-08 -1.43508e-05 9.7865e-07
-6.84554e-08 -1.62701e-05 1.08694e-06
1.70547e-06 1.13054e-08 -8.0537e-08
-5.24098e-08 -1.43794e-05 9.73218e-07
-6.58953e-08 -1.63019e-05 1.08661e-06
-1.10335e-07 -1.80363e-05 1.25324e-06
1.87514e-06 6.95446e-09 -2.6302e-08
1.83306e-06 8.26356e-09 -3.22143e-08
1.67012e-06 1.07905e-08 -8.24393e-08
1.83711e-06 6.59673e-09 -2.62435e-08
1.75284e-06 8.72752e-09 -4.04193e-08
1.70788e-06 9.70606e-09 -5.55394e-08
-1.10839e-07 -1.80698e-05 1.24766e-06
-2.89933e-08 -1.25412e-05 8.32659e-07
-1.50665e-07 -1.92306e-05 1.30652e-06
-2.68086e-08 -1.25657e-05 8.29792e-07
-5.24219e-08 -1.44057e-05 9.75701e-07
1.79549e-06 7.95018e-09 -3.18401e-08
-6.63241e-08 -1.63327e-05 1.09108e-06
1.63239e-06 1.03578e-08 -8.30481e-08
-1.37773e-07 -1.92633e-05 1.31184e-06
-1.99485e-07 -1.91257e-05 1.33402e-06
-1.82151e-07 -1.91607e-05 1.32279e-06
-1.69438e-07 -1.91958e-05 1.33302e-06
-1.0906e-07 -1.81009e-05 1.24865e-06
1.79928e-06 6.42092e-09 -2.59157e-08
1.75799e-06 7.66847e-09 -3.15153e-08
1.71518e-06 8.51917e-09 -4.06259e-08
1.67024e-06 9.39205e-09 -5.53023e-08
1.60262e-06 9.95687e-09 -8.1644e-08
-1.11526e-07 -1.81329e-05 1.23956e-06
1.76838e-06 6.13203e-09 -2.58507e-08
1.68542e-06 8.24524e-09 -4.04156e-08
1.64055e-06 9.0563e-09 -5.45378e-08
-2.92463e-08 -1.25895e-05 8.32389e-07
-5.62057e-08 -1.44318e-05 9.80552e-07
-6.3504e-08 -1.63617e-05 1.10042e-06
-1.48622e-07 -1.9298e-05 1.32441e-06
1.56337e-06 9.61177e-09 -8.03089e-08
-2.86733e-08 -1.26137e-05 8.29817e-07
-5.65331e-08 -1.44587e-05 9.77699e-07
-6.408e-08 -1.63909e-05 1.09975e-06
1.72744e-06 7.40488e-09 -3.12166e-08
-1.52494e-07 -1.93312e-05 1.32149e-06
1.52793e-06 9.2447e-09 -8.01034e-08
-1.14292e-07 -1.81632e-05 1.22816e-06
1.72825e-06 5.96294e-09 -2.48098e-08
1.68777e-06 7.09172e-09 -3.09005e-08
1.64597e-06 8.02928e-09 -3.92407e-08
1.60152e-06 8.78621e-09 -5.33562e-08
1.68548e-06 1.23838e-08 -7.06263e-08
1.65065e-06 1.18382e-08 -7.94319e-08
-2.81177e-07 -1.93119e-05 1.35358e-06
1.61883e-06 1.13998e-08 -8.62695e-08
-2.67249e-07 -1.93479e-05 1.34728e-06
1.60607e-06 1.14641e-08 -1.35948e-08
1.58566e-06 1.09246e-08 -9.07202e-08
-2.39944e-07 -1.9384e-05 1.34353e-06
1.57331e-06 1.10382e-08 -2.30311e-08
-2.98427e-07 -1.83317e-05 1.27799e-06
-2.15e-07 -1.94184e-05 1.2963e-06
-2.8842e-07 -1.83685e-05 1.27352e-06
1.55762e-06 1.05394e-08 -9.18055e-08
1.54319e-06 1.05985e-08 -3.35774e-08
-2.71436e-07 -1.8404e-05 1.28243e-06
-1.94171e-07 -1.9451e-05 1.29293e-06
1.51159e-06 1.01417e-08 -4.10578e-08
1.52627e-06 1.07003e-08 5.55214e-08
1.52188e-06 1.01231e-08 -9.46439e-08
-1.91332e-07 -1.94865e-05 1.29375e-06
1.48559e-06 9.76462e-09 -4.47257e-08
-2.6118e-07 -1.84391e-05 1.23777e-06
1.4981e-06 1.03632e-08 3.73789e-08
1.48735e-06 9.70368e-09 -9.32086e-08
-1.86505e-07 -1.95195e-05 1.2951e-06
1.45251e-06 9.37253e-09 -5.192e-08
-2.41687e-07 -1.84714e-05 1.23009e-06
-2.46248e-07 -1.85058e-05 1.27311e-06
1.46987e-06 9.94962e-09 2.41807e-08
-2.68739e-07 -1.64891e-05 1.10722e-06
2.52866e-06 -1.32195e-08 -1.16543e-06
2.47141e-06 -1.40233e-08 -1.12921e-06
2.41562e-06 -1.47428e-08 -1.09386e-06
2.5888e-06 -1.26343e-08 -1.20515e-06
2.65361e-06 -1.18984e-08 -1.24399e-06
2.72642e-06 -1.14726e-08 -1.28331e-06
2.80803e-06 -1.0554e-08 -1.32115e-06
2.89371e-06 -9.05889e-09 -1.36179e-06
2.97289e-06 -7.21826e-09 -1.41075e-06
3.06448e-06 -6.557e-09 -1.46491e-06
3.15453e-06 -5.11066e-09 -1.52255e-06
-2.01366e-07 1.94121e-05 -1.097e-06
-2.10062e-07 1.95161e-05 -1.0494e-06
2.36191e-06 -1.46432e-08 -1.06021e-06
-1.92683e-07 1.96009e-05 -1.08551e-06
2.26364e-06 -1.44833e-08 -1.00475e-06
2.2198e-06 -1.45361e-08 -9.74911e-07
-2.07652e-07 1.96878e-05 -1.10575e-06
-2.68231e-07 1.64557e-05 -1.06913e-06
-2.29596e-07 1.64164e-05 -1.02016e-06
-2.13432e-07 1.63795e-05 -1.00466e-06
-2.00787e-07 1.63415e-05 -1.00876e-06
-1.91395e-07 1.63014e-05 -1.02287e-06
1.57747e-06 -1.1197e-08 -1.63718e-07
1.55174e-06 -1.07609e-08 -1.61689e-07
1.51439e-06 -1.02559e-08 -1.58492e-07
1.71512e-06 -1.28658e-08 6.48249e-08
1.63623e-06 -1.17935e-08 1.03481e-08
1.5566e-06 -1.10291e-08 -5.67968e-08
-2.67387e-07 1.92759e-05 -1.35522e-06
-2.83198e-07 1.82946e-05 -1.25036e-06
1.75244e-06 -1.33738e-08 6.10312e-08
1.67418e-06 -1.22668e-08 8.35565e-09
1.59495e-06 -1.13814e-08 -5.68035e-08
1.67807e-06 -1.26866e-08 -6.71948e-08
-2.32381e-07 1.92346e-05 -1.30917e-06
-2.51801e-07 1.82541e-05 -1.2068e-06
1.6183e-06 -1.17454e-08 -6.15066e-08
1.65558e-06 -1.22139e-08 -6.29888e-08
1.77948e-06 -1.38172e-08 6.48104e-08
1.69767e-06 -1.26942e-08 2.92065e-09
-2.04964e-07 1.91929e-05 -1.29577e-06
-2.17717e-07 1.82132e-05 -1.18959e-06
1.81762e-06 -1.43752e-08 6.92718e-08
1.73462e-06 -1.31924e-08 1.84215e-09
-1.84626e-07 1.91514e-05 -1.27029e-06
-2.10629e-07 1.81741e-05 -1.17823e-06
1.83999e-06 -1.48736e-08 7.3762e-08
1.7564e-06 -1.36045e-08 3.32043e-09
-2.03129e-07 1.81337e-05 -1.17269e-06
-1.92149e-07 1.91114e-05 -1.28344e-06
1.65889e-06 -1.19134e-08 -1.77758e-07
-1.82367e-07 1.62624e-05 -1.00997e-06
1.70108e-06 -1.24331e-08 -1.82381e-07
-1.98223e-07 1.62256e-05 -1.01539e-06
1.75317e-06 -1.30755e-08 -1.68855e-07
-1.99319e-07 1.61798e-05 -1.00879e-06
1.79844e-06 -1.37628e-08 -1.66982e-07
-2.07851e-07 1.61373e-05 -1.02151e-06
1.84915e-06 -1.44908e-08 -1.61192e-07
-2.29408e-07 1.60949e-05 -1.01984e-06
1.88937e-06 -1.48564e-08 -1.69026e-07
-2.59366e-07 1.4544e-05 -8.69432e-07
-2.50987e-07 1.45875e-05 -8.67761e-07
-2.41683e-07 1.46301e-05 -8.53381e-07
1.76718e-06 -1.36284e-08 -6.91416e-08
1.94022e-06 -1.59615e-08 8.33275e-08
1.85067e-06 -1.44145e-08 7.68299e-09
-1.91556e-07 1.80926e-05 -1.15801e-06
-1.81382e-07 1.90694e-05 -1.25702e-06
1.81009e-06 -1.4158e-08 -6.65365e-08