# vtk DataFile Version 3.0
vtk output
ASCII
DATASET POLYDATA
POINTS 1717 float
0.189992 0.0901274 -0.00499876
0.209995 0.0901363 -0.00504681
0.229998 0.0901442 -0.00506883
0.179994 0.0851126 -0.00468551
0.199996 0.0851182 -0.00474345
0.219999 0.0851217 -0.00477156
0.240001 0.0851228 -0.00477747
0.129985 0.0900984 -0.00456542
0.149987 0.0901096 -0.00477586
0.16999 0.0901187 -0.00491498
0.119987 0.0850043 -0.00431368
0.109983 0.0900195 -0.00438016
0.139989 0.085099 -0.00443073
0.159991 0.0850941 -0.00460355
0.169995 0.0800827 -0.00437701
0.189998 0.0800746 -0.00445695
0.21 0.0800636 -0.0045026
0.230001 0.0800497 -0.00452387
0.0999864 0.085 -0.00403208
0.089983 0.0900196 -0.00401523
0.10999 0.0799825 -0.0039836
0.159997 0.0750733 -0.00404451
0.179999 0.0750524 -0.0041481
0.200001 0.0750278 -0.00421248
0.220002 0.0749993 -0.00424894
0.240004 0.074967 -0.00426542
0.129992 0.0801038 -0.00405211
0.149994 0.0800875 -0.00425801
0.249997 0.0901236 -0.00507248
0.0799869 0.0850302 -0.00359487
0.119995 0.074925 -0.00395092
0.0899899 0.0800098 -0.00362778
0.139996 0.0750979 -0.00388844
0.170001 0.0700511 -0.00380939
0.190002 0.0700184 -0.00389092
0.210004 0.0699812 -0.00394097
0.230005 0.0699392 -0.00396883
0.269998 0.0901171 -0.0051002
0.290001 0.0901248 -0.00512379
0.310003 0.0901314 -0.00514458
0.330004 0.090137 -0.00516147
0.350005 0.0901414 -0.00517298
0.370005 0.0901445 -0.00517758
0.259998 0.0851052 -0.00479657
0.280001 0.0851128 -0.00481936
0.300004 0.0851184 -0.00483968
0.320005 0.0851216 -0.00485647
0.340006 0.0851226 -0.00486807
0.360006 0.0851212 -0.00487264
0.249999 0.0800882 -0.0045003
0.270002 0.0800882 -0.00453318
0.290004 0.0800848 -0.00456293
0.310006 0.080078 -0.0045881
0.330007 0.0800678 -0.00460687
0.350007 0.080054 -0.00461761
0.370007 0.0800365 -0.00461927
0.260004 0.0750768 -0.00423375
0.280006 0.0750672 -0.0042723
0.300007 0.075053 -0.00430589
0.320008 0.0750341 -0.00433218
0.340008 0.0750105 -0.00434922
0.360008 0.0749821 -0.00435614
0.25001 0.0700832 -0.00394313
0.270009 0.0700708 -0.00398375
0.290008 0.070051 -0.00402597
0.310008 0.0700237 -0.00406749
0.320009 0.0650346 -0.0037352
0.340008 0.0650097 -0.00375312
0.360007 0.0649756 -0.00376779
0.330008 0.0700223 -0.00407274
0.350007 0.0699913 -0.0040898
0.370006 0.069951 -0.00410309
0.39 0.0901485 -0.00519106
0.41 0.0901596 -0.00521025
0.43 0.090169 -0.00522145
0.45 0.0901767 -0.00522348
0.47 0.0901825 -0.00521498
0.49 0.0901865 -0.00519447
0.380003 0.085123 -0.00487948
0.400002 0.0851381 -0.00490237
0.420001 0.0851498 -0.00491739
0.44 0.0851579 -0.00492315
0.459999 0.0851625 -0.00491826
0.479998 0.0851636 -0.00490127
0.390004 0.0800552 -0.00464775
0.410003 0.0800668 -0.00467166
0.430001 0.0800737 -0.00468529
0.45 0.0800759 -0.00468653
0.469998 0.0800732 -0.00467421
0.489996 0.0800658 -0.00464808
0.380008 0.0749858 -0.00438287
0.400005 0.0750009 -0.00441193
0.420003 0.07501 -0.00443171
0.44 0.075013 -0.00443839
0.459997 0.0750099 -0.00443011
0.479994 0.0750007 -0.00440687
0.390007 0.0699933 -0.00406167
0.410004 0.0700048 -0.00408476
0.430002 0.0700103 -0.00409734
0.449999 0.0700098 -0.00409659
0.469997 0.0700033 -0.00408159
0.489994 0.0699907 -0.00405334
0.380012 0.0649554 -0.00377964
0.400008 0.0649714 -0.00380279
0.420005 0.0649801 -0.00381849
0.440001 0.0649815 -0.00382197
0.459997 0.0649757 -0.00381106
0.479994 0.0649626 -0.00378626
0.510001 0.0901768 -0.00519539
0.530001 0.0901759 -0.00521839
0.55 0.0901724 -0.00522816
0.57 0.0901664 -0.00522583
0.59 0.0901579 -0.00521252
0.61 0.0901469 -0.00518933
0.500004 0.0851494 -0.00487003
0.520003 0.0851554 -0.00490299
0.540001 0.0851571 -0.00492158
0.56 0.0851544 -0.00492679
0.579999 0.0851475 -0.0049198
0.599998 0.0851363 -0.00490179
0.619998 0.085121 -0.00487415
0.510004 0.0800667 -0.00465004
0.530002 0.0800739 -0.00467553
0.55 0.0800763 -0.00468734
0.569999 0.080074 -0.00468572
0.589997 0.080067 -0.00467184
0.609995 0.0800554 -0.00464776
0.500008 0.0749862 -0.00437293
0.520005 0.0750013 -0.00440843
0.540003 0.0750104 -0.00443109
0.56 0.0750133 -0.00443895
0.579997 0.0750102 -0.00443197
0.599994 0.0750011 -0.00441202
0.619992 0.074986 -0.00438288
0.510006 0.0699906 -0.00405334
0.530003 0.0700032 -0.00408158
0.550001 0.0700098 -0.00409656
0.569998 0.0700103 -0.00409728
0.589996 0.0700047 -0.00408464
0.609993 0.0699932 -0.00406149
0.500009 0.0649421 -0.0037506
0.520006 0.0649625 -0.00378624
0.540003 0.0649756 -0.00381104
0.559999 0.0649814 -0.00382192
0.579996 0.06498 -0.00381841
0.599992 0.0649713 -0.00380266
0.619988 0.0649553 -0.00377944
0.629995 0.0901409 -0.00517304
0.649994 0.0901417 -0.00517467
0.669994 0.09014 -0.00516663
0.689996 0.090136 -0.00515088
0.709999 0.0901298 -0.0051293
0.730003 0.0901215 -0.00510335
0.639993 0.0851196 -0.00487011
0.659993 0.0851243 -0.00487048
0.679994 0.0851254 -0.00486136
0.699996 0.0851231 -0.00484496
0.719999 0.0851174 -0.00482333
0.740003 0.0851086 -0.00479785
0.629993 0.0800313 -0.00461639
0.649993 0.0800518 -0.00461608
0.669993 0.080068 -0.00460607
0.689994 0.0800801 -0.00458757
0.709996 0.0800881 -0.00456238
0.729998 0.080092 -0.00453245
0.750001 0.0800921 -0.00449929
0.639992 0.0749785 -0.00435403
0.659992 0.0750097 -0.00434809
0.679992 0.0750353 -0.0043315
0.699993 0.0750557 -0.00430533
0.719994 0.0750707 -0.00427163
0.739996 0.0750806 -0.00423285
0.639993 0.0649728 -0.003767
0.659992 0.0650083 -0.00375287
0.679991 0.0650344 -0.00373532
0.629994 0.0699474 -0.0041019
0.649993 0.0699893 -0.0040893
0.669992 0.0700216 -0.00407273
0.689992 0.070024 -0.00406781
0.709992 0.0700519 -0.00402647
0.729991 0.0700721 -0.00398431
0.74999 0.0700846 -0.00394364
0.750005 0.0901249 -0.00507127
0.770002 0.0901443 -0.00506885
0.790005 0.0901364 -0.00504683
0.810008 0.0901274 -0.00499877
0.759999 0.0851228 -0.0047775
0.780001 0.0851217 -0.00477158
0.800004 0.0851183 -0.00474346
0.820006 0.0851127 -0.00468551
0.83001 0.0901188 -0.00491498
0.850013 0.0901097 -0.00477586
0.870015 0.0900985 -0.0045654
0.840009 0.0850941 -0.00460355
0.860011 0.085099 -0.00443072
0.769999 0.0800497 -0.00452387
0.79 0.0800636 -0.00450261
0.810002 0.0800746 -0.00445695
0.830005 0.0800827 -0.00437701
0.880013 0.0850053 -0.00431375
0.890017 0.0900203 -0.00438015
0.759996 0.0749669 -0.00426542
0.779998 0.0749993 -0.00424894
0.799999 0.0750278 -0.00421247
0.820001 0.0750524 -0.00414809
0.840003 0.0750733 -0.0040445
0.850006 0.0800876 -0.004258
0.870008 0.0801038 -0.0040521
0.900014 0.0850005 -0.004032
0.910017 0.0900199 -0.00401511
0.89001 0.0799832 -0.00398358
0.860004 0.0750979 -0.00388843
0.769995 0.0699392 -0.00396882
0.789996 0.0699811 -0.00394096
0.809998 0.0700184 -0.00389091
0.829999 0.0700511 -0.00380938
0.920013 0.0850304 -0.00359469
0.880005 0.074926 -0.00395099
0.91001 0.0800101 -0.00362763
0.099979 0.0950669 -0.00428184
0.119979 0.0950656 -0.00464467
0.0799796 0.0950412 -0.00392452
0.109975 0.100081 -0.0046641
0.0899757 0.100075 -0.00422367
0.11997 0.1051 -0.00500954
0.0999712 0.105086 -0.0046082
0.0799738 0.105081 -0.00408741
0.109967 0.110107 -0.00495957
0.0899689 0.110094 -0.00448126
0.119963 0.115127 -0.00525459
0.0999643 0.115109 -0.00482339
0.0799681 0.115095 -0.00426748
0.10996 0.120133 -0.00512292
0.0899628 0.120111 -0.00461667
0.119958 0.125152 -0.00534709
0.0999593 0.12513 -0.00489303
0.0799636 0.125109 -0.00431179
0.109957 0.130148 -0.00512577
0.0899594 0.130127 -0.00459679
0.0999573 0.135143 -0.00479379
0.119956 0.135166 -0.0052616
0.0799621 0.135121 -0.00419747
0.0899596 0.140137 -0.00440305
0.109956 0.14016 -0.00493704
0.0999597 0.14515 -0.00449381
0.119958 0.145173 -0.00495883
0.0799648 0.145127 -0.00390405
0.0899645 0.150139 -0.00400456
0.109961 0.150163 -0.0045243
0.0999671 0.155147 -0.00396824
0.119965 0.15517 -0.00441028
0.109971 0.160153 -0.00386449
0.0699664 0.140114 -0.00374651
0.0699661 0.130107 -0.00394665
0.0699694 0.120095 -0.00398506
0.119978 0.165146 -0.00359775
0.0699731 0.110087 -0.00388209
0.0599734 0.125095 -0.00361084
0.0599728 0.135103 -0.00348629
0.0699778 0.100062 -0.00376544
0.0599773 0.115078 -0.00360242
0.0599823 0.105044 -0.00352107
0.13998 0.0951098 -0.00492178
0.159984 0.0951214 -0.0051031
0.179988 0.0951317 -0.00522115
0.149976 0.10012 -0.00525115
0.169983 0.100133 -0.00540623
0.129971 0.10011 -0.00502138
0.139969 0.105117 -0.0053388
0.159976 0.105131 -0.00553805
0.179983 0.105144 -0.00567339
0.149968 0.11013 -0.00562033
0.169976 0.110144 -0.00579474
0.129961 0.110117 -0.00537126
0.15997 0.115149 -0.00584992
0.179977 0.115164 -0.00600847
0.139962 0.115132 -0.00562207
0.169971 0.120172 -0.00604859
0.129956 0.12013 -0.0055586
0.149963 0.12015 -0.00584487
0.139958 0.125152 -0.0057373
0.159966 0.125172 -0.00598989
0.179973 0.12519 -0.00616966
0.129954 0.130149 -0.00557205
0.149961 0.130171 -0.00587736
0.169968 0.13019 -0.00609935
0.139957 0.135167 -0.00565521
0.159964 0.135187 -0.00592027
0.179971 0.135205 -0.00611197
0.149961 0.140184 -0.00569088
0.169967 0.140202 -0.00592043
0.129955 0.140162 -0.00537894
0.13996 0.145175 -0.00534006
0.159966 0.145196 -0.00560724
0.179971 0.145213 -0.00580349
0.129961 0.150165 -0.00494351
0.149965 0.150187 -0.00524994
0.16997 0.150205 -0.00547801
0.219995 0.0951517 -0.00533641
0.239999 0.0951638 -0.00535111
0.19999 0.095136 -0.00530606
0.189981 0.100139 -0.00554119
0.20999 0.100151 -0.0055824
0.229997 0.100163 -0.00560573
0.199982 0.105148 -0.00579127
0.219992 0.10516 -0.00582014
0.239998 0.105172 -0.00584
0.189971 0.110149 -0.00597586
0.209986 0.110162 -0.00600793
0.229996 0.110175 -0.00603291
0.199977 0.115171 -0.00614755
0.21999 0.115187 -0.00618337
0.239997 0.115204 -0.00621353
0.189964 0.12018 -0.00624708
0.209983 0.120199 -0.00629753
0.229994 0.120217 -0.00633699
0.199973 0.125199 -0.00631893
0.219988 0.125218 -0.00637032
0.239994 0.125236 -0.00641372
0.189963 0.1302 -0.00629972
0.20998 0.130219 -0.00636514
0.22999 0.130237 -0.0064187
0.199973 0.135217 -0.00625711
0.219986 0.135235 -0.00631999
0.23999 0.135252 -0.0063752
0.189965 0.140214 -0.00611159
0.20998 0.140232 -0.00618584
0.229988 0.14025 -0.00624927
[...]
POINT_DATA 1717
VECTORS alpha float
-2.03888e-05 -9.01854e-09 5.44536e-08
-1.7537e-05 -6.90969e-09 2.24452e-08
-1.47143e-05 -5.02268e-09 3.91084e-09
-1.59234e-09 2.88107e-06 -1.63983e-07
-2.09167e-09 4.31626e-06 -2.51973e-07
-2.11152e-09 5.02729e-06 -2.98958e-07
-1.8523e-09 5.12189e-06 -3.08896e-07
-2.59517e-05 -1.46951e-08 2.90823e-07
-2.49791e-05 -1.17061e-08 1.88326e-07
-2.29912e-05 -8.42274e-09 1.08624e-07
1.59372e-09 -2.26209e-06 1.13384e-07
-2.5558e-05 3.64837e-08 4.38923e-07
8.32766e-10 -1.23144e-06 6.45979e-08
-5.28999e-10 8.51484e-07 -4.71249e-08
-2.77316e-06 1.01911e-09 1.21682e-08
8.71769e-07 -4.40896e-10 -2.23725e-09
4.49962e-06 -2.92012e-09 -5.72569e-09
7.88738e-06 -6.2864e-09 -2.49937e-09
3.43004e-10 -4.8787e-07 2.25561e-08
-2.35932e-05 5.03488e-08 5.46656e-07
-1.04456e-05 2.50913e-08 1.67686e-07
-1.28405e-09 2.52524e-06 -1.49503e-07
-2.09419e-09 4.70125e-06 -2.87992e-07
-2.3353e-09 6.12473e-06 -3.8427e-07
-2.15443e-09 6.71302e-06 -4.28382e-07
-1.76761e-09 6.62417e-06 -4.27886e-07
-8.79413e-06 6.72067e-09 9.54156e-08
-6.11881e-06 5.7562e-09 4.62506e-08
-1.20976e-05 -6.07815e-09 1.00142e-08
-4.33899e-09 6.56136e-06 -2.665e-07
8.0524e-10 -1.43356e-06 7.95754e-08
-1.08258e-05 2.84269e-08 2.26482e-07
-6.06804e-11 1.08213e-07 -6.1181e-09
1.18816e-05 -1.84108e-08 -5.28325e-08
1.5951e-05 -2.83038e-08 -4.4559e-08
1.97992e-05 -3.97013e-08 -3.17476e-08
2.32612e-05 -5.21362e-08 -1.76372e-08
-9.77163e-06 -3.76797e-09 1.01068e-08
-7.75427e-06 -2.62162e-09 7.25922e-09
-6.02599e-06 -1.73026e-09 4.79028e-09
-4.54987e-06 -1.05667e-09 2.65341e-09
-3.28813e-06 -5.69518e-10 9.62754e-10
-2.21049e-06 -2.43715e-10 -1.55769e-10
-1.37183e-09 4.80235e-06 -2.87425e-07
-1.04597e-09 4.26391e-06 -2.57211e-07
-7.68631e-10 3.65759e-06 -2.22118e-07
-5.51623e-10 3.0742e-06 -1.87765e-07
-3.89475e-10 2.5552e-06 -1.56814e-07
-2.70899e-10 2.10899e-06 -1.29913e-07
1.09129e-05 5.97697e-10 -1.64973e-08
1.35344e-05 -1.45374e-09 -1.90188e-08
1.57699e-05 -4.30423e-09 -1.95227e-08
1.76658e-05 -7.81719e-09 -1.73082e-08
1.92761e-05 -1.18856e-08 -1.21338e-08
2.06488e-05 -1.64223e-08 -4.32031e-09
2.182e-05 -2.13424e-08 5.24979e-09
-1.15618e-09 6.10971e-06 -3.89395e-07
-8.75181e-10 5.37763e-06 -3.46097e-07
-6.47188e-10 4.6012e-06 -2.98683e-07
-4.74233e-10 3.87496e-06 -2.53409e-07
-3.47395e-10 3.23732e-06 -2.12979e-07
-2.55286e-10 2.69055e-06 -1.77755e-07
2.62626e-05 -1.2204e-08 -4.69619e-08
2.88108e-05 -2.38309e-08 -5.62593e-08
3.09497e-05 -3.69395e-08 -6.14076e-08
3.2745e-05 -5.12194e-08 -6.26386e-08
-1.94368e-10 4.63001e-06 -3.05588e-07
-1.77591e-10 3.87971e-06 -2.56918e-07
-1.67584e-10 3.23903e-06 -2.14686e-07
3.42603e-05 -4.57378e-08 -2.91265e-08
3.55513e-05 -6.38131e-08 -2.33132e-08
3.66542e-05 -8.28153e-08 -1.89597e-08
-1.2969e-06 -7.59187e-10 1.36457e-09
-5.3626e-07 -2.70064e-10 3.74881e-10
7.51487e-08 3.15076e-11 -2.15882e-11
5.36953e-07 1.78559e-10 1.00999e-10
8.46924e-07 2.06154e-10 6.22812e-10
1.00269e-06 1.52477e-10 1.36195e-09
-1.19914e-10 1.72651e-06 -1.06051e-07
-8.6083e-11 1.39167e-06 -8.60766e-08
-5.94371e-11 1.08882e-06 -6.7708e-08
-3.83933e-11 8.05413e-07 -5.0281e-08
-2.19448e-11 5.32697e-07 -3.33392e-08
-9.36652e-12 2.65224e-07 -1.6617e-08
2.28119e-05 1.56574e-08 -3.03096e-08
2.36379e-05 1.07559e-08 -2.12381e-08
2.43015e-05 5.36071e-09 -8.2241e-09
2.48022e-05 -3.9717e-10 7.53687e-09
2.5138e-05 -6.38667e-09 2.47144e-08
2.53067e-05 -1.24681e-08 4.17786e-08
2.06388e-11 2.21879e-06 -1.47132e-07
-3.0473e-12 1.80138e-06 -1.20393e-07
-1.77162e-11 1.41798e-06 -9.52773e-08
-2.44421e-11 1.05384e-06 -7.10157e-08
-2.37526e-11 6.99305e-07 -4.71462e-08
-1.57118e-11 3.48889e-07 -2.34734e-08
3.75886e-05 2.68256e-08 -4.80441e-08
3.83702e-05 1.60328e-08 -3.33369e-08
3.89995e-05 4.6598e-09 -1.05156e-08
3.94754e-05 -7.12891e-09 1.673e-08
3.97949e-05 -1.91703e-08 4.43827e-08
3.99556e-05 -3.12915e-08 6.825e-08
1.87104e-10 2.6847e-06 -1.78381e-07
1.01847e-10 2.1902e-06 -1.46751e-07
4.04018e-11 1.73109e-06 -1.16611e-07
2.75306e-13 1.29058e-06 -8.71281e-08
-1.97094e-11 8.58267e-07 -5.7884e-08
-1.98677e-11 4.28769e-07 -2.87944e-08
1.00279e-06 2.09751e-11 -1.5097e-09
8.47281e-07 -9.06795e-11 -7.05452e-10
5.37545e-07 -1.25362e-10 -1.15437e-10
7.59414e-08 -2.71297e-11 2.62527e-11
-5.3531e-07 2.56376e-10 -4.55683e-10
-1.29585e-06 7.74706e-10 -1.68414e-09
-4.542e-15 -1.83488e-10 1.14929e-11
-8.03463e-12 -2.65582e-07 1.66666e-08
-1.9437e-11 -5.33026e-07 3.3448e-08
-3.47571e-11 -8.05694e-07 5.04614e-08
-5.44934e-11 -1.08904e-06 6.79537e-08
-7.92832e-11 -1.39181e-06 8.63615e-08
-1.10143e-10 -1.72658e-06 1.06326e-07
2.53068e-05 1.21128e-08 -4.08416e-08
2.51383e-05 6.11311e-09 -2.39903e-08
2.48027e-05 2.05535e-10 -6.9997e-09
2.43021e-05 -5.47238e-09 8.60198e-09
2.36388e-05 -1.07915e-08 2.14866e-08
2.28128e-05 -1.56225e-08 3.04602e-08
-6.877e-15 -1.22172e-10 8.18142e-12
-1.55576e-11 -3.49124e-07 2.34909e-08
-2.33165e-11 -6.99515e-07 4.71644e-08
-2.3566e-11 -1.05401e-06 7.1032e-08
-1.61763e-11 -1.41809e-06 9.52868e-08
-5.19167e-13 -1.80143e-06 1.20388e-07
2.46374e-11 -2.21878e-06 1.47101e-07
3.99557e-05 3.13342e-08 -6.82677e-08
3.97953e-05 1.91957e-08 -4.43636e-08
3.94759e-05 7.13646e-09 -1.6678e-08
3.90002e-05 -4.67051e-09 1.05967e-08
3.8371e-05 -1.60618e-08 3.34442e-08
3.75895e-05 -2.68725e-08 4.8176e-08
-4.75557e-15 -6.77097e-11 4.51312e-12
-1.9943e-11 -4.28898e-07 2.88041e-08
-1.98364e-11 -8.58376e-07 5.78927e-08
1.17759e-13 -1.29065e-06 8.71341e-08
4.02392e-11 -1.73113e-06 1.16613e-07
1.01706e-10 -2.19019e-06 1.46747e-07
1.8701e-10 -2.68464e-06 1.78369e-07
-2.20929e-06 -2.45015e-10 1.01061e-09
-3.28695e-06 3.13865e-11 -1.76211e-10
-4.54879e-06 5.6903e-10 -2.14368e-09
-6.02513e-06 1.41849e-09 -4.75496e-09
-7.75372e-06 2.64256e-09 -7.88832e-09
-9.77152e-06 4.31777e-09 -1.15851e-08
-2.47433e-10 -2.10892e-06 1.3048e-07
-3.63772e-10 -2.55508e-06 1.57439e-07
-5.23648e-10 -3.07406e-06 1.88393e-07
-7.38258e-10 -3.65744e-06 2.22677e-07
-1.01299e-09 -4.26378e-06 2.57612e-07
-1.33597e-09 -4.80227e-06 2.87571e-07
2.1821e-05 2.49969e-08 -7.144e-09
2.06498e-05 1.92435e-08 3.28581e-09
1.92771e-05 1.39273e-08 1.16794e-08
1.76668e-05 9.14773e-09 1.72126e-08
1.57708e-05 5.01053e-09 1.96175e-08
1.35352e-05 1.64739e-09 1.91828e-08
1.09135e-05 -7.73842e-10 1.6651e-08
-2.55701e-10 -2.69042e-06 1.77729e-07
-3.4748e-10 -3.23715e-06 2.12975e-07
-4.73891e-10 -3.87475e-06 2.53422e-07
-6.46312e-10 -4.60098e-06 2.98707e-07
-8.73671e-10 -5.37743e-06 3.46124e-07
-1.15398e-09 -6.10954e-06 3.89417e-07
-1.66586e-10 -3.23894e-06 2.14652e-07
-1.76294e-10 -3.87958e-06 2.56923e-07
-1.92714e-10 -4.62984e-06 3.05628e-07
3.66551e-05 8.60614e-08 1.7511e-08
3.55522e-05 6.64111e-08 2.22694e-08
3.42613e-05 4.77086e-08 2.84303e-08
3.27459e-05 5.25925e-08 6.22298e-08
3.09506e-05 3.77531e-08 6.12267e-08
2.88116e-05 2.41359e-08 5.62535e-08
2.62633e-05 1.20686e-08 4.70835e-08
-1.2098e-05 7.3489e-09 -1.23873e-08
-1.47139e-05 5.0246e-09 -3.91579e-09
-1.75369e-05 6.90955e-09 -2.24504e-08
-2.03889e-05 9.01578e-09 -5.44597e-08
-1.84945e-09 -5.12149e-06 3.08873e-07
-2.10857e-09 -5.02691e-06 2.98936e-07
-2.089e-09 -4.31593e-06 2.51955e-07
-1.59045e-09 -2.88081e-06 1.63968e-07
-2.29913e-05 8.41733e-09 -1.08632e-07
-2.49794e-05 1.16984e-08 -1.88336e-07
-2.59521e-05 1.46859e-08 -2.90836e-07
-5.28358e-10 -8.51307e-07 4.71151e-08
8.32036e-10 1.23154e-06 -6.46024e-08
7.88793e-06 6.28771e-09 2.49981e-09
4.5e-06 2.92119e-09 5.72626e-09
8.72002e-07 4.41225e-10 2.23788e-09
-2.77306e-06 -1.01986e-09 -1.2168e-08
1.59252e-09 2.26211e-06 -1.13383e-07
-2.55585e-05 -3.58206e-08 -4.39093e-07
-1.76549e-09 -6.62385e-06 4.27864e-07
-2.1521e-09 -6.71273e-06 4.28363e-07
-2.33302e-09 -6.12448e-06 3.84255e-07
-2.09232e-09 -4.70106e-06 2.8798e-07
-1.28297e-09 -2.52511e-06 1.49496e-07
-6.11882e-06 -5.7591e-09 -4.62511e-08
-8.7942e-06 -6.7252e-09 -9.54177e-08
3.42654e-10 4.87832e-07 -2.25557e-08
-2.35936e-05 -4.98856e-08 -5.46761e-07
-1.04458e-05 -2.4816e-08 -1.67774e-07
-6.06015e-11 -1.08155e-07 6.11482e-09
2.32618e-05 5.21396e-08 1.76366e-08
1.97997e-05 3.9706e-08 3.17472e-08
1.59513e-05 2.83089e-08 4.45589e-08
1.18818e-05 1.84154e-08 5.28328e-08
-4.33379e-09 -6.56146e-06 2.66537e-07
8.04612e-10 1.43357e-06 -7.95785e-08
-1.08259e-05 -2.82086e-08 -2.2654e-07
-3.65009e-10 4.93897e-07 -1.85588e-08
1.53156e-09 -2.06808e-06 8.69572e-08
-5.81831e-09 8.3133e-06 -2.83591e-07
-4.41451e-05 -8.7616e-09 7.62917e-07
-3.90438e-05 -3.42466e-09 8.8586e-07
3.17073e-10 -4.36692e-07 1.40276e-08
-2.1527e-09 3.04646e-06 -8.57218e-08
-7.61299e-09 1.1721e-05 -2.75194e-07
-6.60378e-05 -3.46719e-08 1.26248e-06
-5.69724e-05 -2.52893e-08 1.41665e-06
-1.8586e-09 3.07444e-06 -5.70406e-08
-4.3775e-09 7.58324e-06 -1.16487e-07
-8.82109e-09 1.71354e-05 -2.01595e-07
-9.08646e-05 -8.03995e-08 1.86219e-06
-7.7011e-05 -5.82096e-08 2.05005e-06
-3.34003e-09 8.92092e-06 -1.41036e-08
-4.86823e-09 1.45137e-05 8.14118e-09
-6.84871e-09 2.49148e-05 6.85351e-08
-0.000118066 -1.17309e-07 2.54878e-06
-9.86376e-05 -9.76775e-08 2.74645e-06
3.42547e-10 2.42243e-05 4.67754e-07
-5.96383e-10 1.75509e-05 3.26764e-07
2.35414e-09 3.53733e-05 6.99126e-07
-0.000121203 -1.27237e-07 3.43348e-06
-0.000146918 -1.54133e-07 3.24885e-06
1.71632e-08 3.7058e-05 1.51024e-06
1.20834e-08 2.93853e-05 1.2321e-06
2.42862e-08 4.87684e-05 1.90301e-06
-0.000143964 -1.55416e-07 4.01289e-06
-0.000176579 -1.90677e-07 3.86261e-06
5.2514e-08 5.32981e-05 3.43126e-06
4.20041e-08 4.47994e-05 3.03863e-06
-0.000204075 -2.08788e-07 4.20703e-06
-9.43639e-05 -9.47038e-08 3.19849e-06
-7.7712e-05 -6.31688e-08 2.60603e-06
-6.14599e-05 -3.44722e-08 1.98136e-06
9.622e-08 6.3938e-05 6.12485e-06
-4.61571e-05 -7.91801e-09 1.39628e-06
-8.7607e-09 4.29802e-05 2.09005e-07
5.82165e-09 5.36819e-05 1.06625e-06
-3.22551e-05 5.79191e-08 9.92208e-07
-1.45773e-08 3.47518e-05 -2.75342e-07
-1.56119e-08 2.87572e-05 -5.48711e-07
1.14171e-09 -1.71971e-06 7.7979e-08
9.15378e-11 -1.44092e-07 6.9393e-09
-9.37701e-10 1.57797e-06 -7.94099e-08
-4.89689e-05 -3.12599e-08 4.07937e-07
-4.91364e-05 -3.03773e-08 2.65349e-07
-4.74167e-05 -3.04635e-08 5.78612e-07
5.22466e-10 -9.42913e-07 3.28983e-08
3.42162e-11 -5.99702e-08 2.25888e-09
-6.73586e-10 1.17513e-06 -4.68826e-08
-7.80679e-05 -5.32353e-08 7.20755e-07
-8.13043e-05 -4.98545e-08 5.15216e-07
-7.30761e-05 -5.06134e-08 9.54323e-07
-7.44921e-10 1.56179e-06 -3.59595e-08
-1.07628e-09 2.11743e-06 -5.30247e-08
-6.71302e-10 1.55641e-06 -3.20897e-08
-0.00011929 -9.62718e-08 9.09272e-07
-0.000102577 -1.00038e-07 1.56107e-06
-0.000111983 -9.65669e-08 1.22783e-06
-1.50867e-09 6.26448e-06 -1.68592e-08
-1.61466e-09 5.22133e-06 -2.30704e-08
-1.79272e-09 4.90407e-06 -2.93801e-08
-0.00013536 -1.44905e-07 2.20823e-06
-0.000150184 -1.41725e-07 1.78985e-06
-0.000162624 -1.311e-07 1.37432e-06
8.37738e-10 1.36771e-05 2.58864e-07
-4.12585e-10 1.14451e-05 2.06905e-07
-1.25758e-09 1.00754e-05 1.7262e-07
-0.000191905 -1.80955e-07 2.37878e-06
-0.000210577 -1.66576e-07 1.88114e-06
-0.000170665 -1.85162e-07 2.86589e-06
1.14342e-08 2.42798e-05 1.06951e-06
7.11645e-09 2.07673e-05 9.22592e-07
3.95039e-09 1.81972e-05 8.08414e-07
-0.000207577 -2.24331e-07 3.46209e-06
-0.000236205 -2.21468e-07 2.93788e-06
-0.000262214 -2.06028e-07 2.39017e-06
-1.78909e-09 3.61511e-06 -1.92784e-07
-1.79629e-09 3.81293e-06 -2.07836e-07
-1.50949e-09 2.88879e-06 -1.49953e-07
-4.83432e-05 -2.75378e-08 9.92432e-08
-4.69589e-05 -2.67123e-08 5.03941e-08
-4.53285e-05 -2.55638e-08 2.16981e-08
-1.06506e-09 2.19944e-06 -9.05504e-08
-1.47709e-09 2.80213e-06 -1.20094e-07
-1.71292e-09 2.99045e-06 -1.32613e-07
-8.32257e-05 -5.13648e-08 1.04929e-07
-8.41431e-05 -5.226e-08 6.95213e-08
-8.44799e-05 -5.24587e-08 6.5295e-08
-1.01994e-09 2.67073e-06 -6.88719e-08
-1.47667e-09 2.98306e-06 -8.20134e-08
-1.83617e-09 3.01663e-06 -8.76689e-08
-0.00012495 -1.12575e-07 2.77633e-07
-0.000129131 -1.16494e-07 2.07777e-07
-0.000132348 -1.1871e-07 1.77869e-07
-9.81473e-10 4.78855e-06 -2.9384e-08
-1.68589e-09 4.62021e-06 -3.50746e-08
-2.26377e-09 4.32378e-06 -3.89902e-08
-0.000173084 -1.54029e-07 5.19377e-07
-0.000181621 -1.59041e-07 4.20622e-07
-0.000188782 -1.61519e-07 3.80527e-07
5.13729e-10 9.09213e-06 1.62677e-07
-1.08014e-09 8.23904e-06 1.38801e-07
-2.3409e-09 7.41376e-06 1.16454e-07
-0.000226994 -1.96591e-07 7.89033e-07
-0.00024107 -2.03136e-07 6.77451e-07
-0.000253351 -2.06484e-07 6.49563e-07
6.75047e-09 1.61611e-05 7.495e-07
2.81471e-09 1.4418e-05 6.63107e-07
-2.95083e-10 1.28509e-05 5.82942e-07
-0.000285794 -2.45251e-07 1.05582e-06
-0.000306676 -2.56693e-07 9.56766e-07
-0.000325371 -2.64429e-07 9.68548e-07
-0.000264136 -2.05344e-07 6.98656e-07
-0.000342128 -2.66093e-07 1.08024e-06
-0.000194878 -1.49938e-07 4.06116e-07
-0.000134917 -1.05486e-07 2.67867e-07
-8.45168e-05 -5.36878e-08 8.02203e-08
4.45965e-08 3.85259e-05 2.77921e-06
3.20936e-08 3.37091e-05 2.50543e-06
2.20962e-08 2.98407e-05 2.26325e-06
-0.000242918 -2.76007e-07 3.68979e-06
-0.000279652 -2.74855e-07 3.1133e-06
-0.000313908 -2.5833e-07 2.47548e-06
8.68252e-08 5.06272e-05 5.4225e-06
6.20704e-08 4.54424e-05 5.03724e-06
1.15945e-07 5.66753e-05 5.80437e-06
0.00206093 1.52128e-06 -1.07038e-05
0.00195854 1.3083e-06 -1.70089e-05
2.50034e-08 2.65991e-05 2.08598e-06
1.608e-08 2.37745e-05 1.88564e-06
8.87243e-09 2.12509e-05 1.69533e-06
-0.000345685 -2.91826e-07 1.31976e-06
-0.000374599 -3.11993e-07 1.12303e-06
-0.000401012 -3.28531e-07 1.0441e-06
-0.000425086 -3.38429e-07 1.07463e-06
4.54579e-08 3.68513e-05 4.28941e-06
3.10281e-08 3.31775e-05 3.93934e-06
6.28265e-08 4.09089e-05 4.64038e-06
0.00230875 1.54626e-06 -2.87942e-06
0.00223501 1.49493e-06 -3.99962e-06
0.00215309 1.42357e-06 -5.87134e-06
-1.2771e-09 3.63758e-06 -1.95504e-07
-1.06645e-09 3.25426e-06 -1.76833e-07
-8.64466e-10 2.79271e-06 -1.53186e-07
-4.36851e-05 -1.95906e-08 3.73435e-08
-4.21585e-05 -1.66026e-08 3.65731e-08
-4.07985e-05 -1.48772e-08 4.0312e-08
-3.96208e-05 -1.31357e-08 4.28466e-08
-9.49469e-10 2.20446e-06 -9.92734e-08
-1.09663e-09 2.87229e-06 -1.2534e-07
-1.0373e-09 2.57489e-06 -1.14257e-07
-8.4458e-05 -3.86087e-08 5.83465e-08
-8.43305e-05 -3.10359e-08 8.877e-08
-8.42127e-05 -2.28752e-08 1.14892e-07
-9.93214e-10 2.83217e-06 -8.12892e-08
-1.04372e-09 2.51757e-06 -7.42133e-08
-1.0349e-09 2.15173e-06 -6.50053e-08
-0.000137145 -8.1843e-08 1.88631e-07
-0.000138969 -6.15561e-08 2.02969e-07
-0.000140555 -3.90056e-08 2.06372e-07
-9.86988e-10 3.91586e-06 -3.46008e-08
-1.18992e-09 3.44492e-06 -3.27428e-08
-1.30166e-09 2.96066e-06 -3.01947e-08
-0.000200356 -1.24533e-07 3.47898e-07
-0.000205007 -9.56034e-08 3.74032e-07
-0.000209098 -6.23129e-08 3.84853e-07
-5.52497e-10 6.59479e-06 1.05856e-07
-1.13635e-09 5.79293e-06 9.00628e-08
-1.54646e-09 5.02901e-06 7.51063e-08
-0.000273956 -1.75321e-07 5.55342e-07
-0.000282467 -1.36583e-07 6.08847e-07
-0.000290016 -9.07959e-08 6.44283e-07
1.81003e-09 1.14088e-05 5.27247e-07
2.08465e-10 1.00692e-05 4.63644e-07
-1.00713e-09 8.8267e-06 4.03125e-07
-0.000357559 -2.28362e-07 7.76675e-07
-0.000371127 -1.80098e-07 8.89268e-07
-0.000383258 -1.21847e-07 9.85931e-07
-5.26525e-10 2.33559e-06 -1.29473e-07
-3.89305e-10 1.92392e-06 -1.07448e-07
-2.85353e-10 1.56987e-06 -8.82384e-08
-3.86148e-05 -1.38847e-08 1.31481e-08
-3.77523e-05 -1.47113e-08 2.8126e-08
-3.70147e-05 -1.53918e-08 4.01335e-08
-5.08878e-10 1.83136e-06 -8.35705e-08
-4.00608e-10 1.49238e-06 -6.8869e-08
-3.1221e-10 1.20081e-06 -5.59492e-08
-8.41304e-05 -2.72921e-08 -1.94071e-08
-8.4058e-05 -3.05394e-08 6.59515e-08
-8.39959e-05 -3.31566e-08 1.43015e-07
-4.9611e-10 1.78907e-06 -5.48757e-08
-4.13183e-10 1.45869e-06 -4.54952e-08
-3.38307e-10 1.17206e-06 -3.70908e-08
-0.000141978 -5.47639e-08 5.49338e-08
-0.000143202 -6.07344e-08 1.69362e-07
-0.000144253 -6.49509e-08 2.65844e-07
-5.69402e-10 2.49878e-06 -2.62612e-08
-5.14471e-10 2.07768e-06 -2.26462e-08
-4.52932e-10 1.7043e-06 -1.92177e-08
-0.000212752 -8.80548e-08 1.18446e-07
-0.000215911 -9.68277e-08 2.8247e-07
-0.000218632 -1.02498e-07 4.20102e-07
-5.36233e-10 4.31856e-06 6.53945e-08
-5.78875e-10 3.66716e-06 5.44229e-08
-5.81854e-10 3.07503e-06 4.45054e-08
-0.000296779 -1.27181e-07 2.05092e-07
-0.000302653 -1.39075e-07 4.37119e-07
-0.000307732 -1.46224e-07 6.35956e-07
2.43749e-10 7.67671e-06 3.56908e-07
-1.41651e-10 6.61133e-06 3.06885e-07
-4.02498e-10 5.62268e-06 2.59723e-07
-0.000394178 -1.67613e-07 3.03721e-07
-0.000403709 -1.84817e-07 6.43909e-07
-0.000411983 -1.95966e-07 9.51287e-07
2.61208e-09 1.48927e-05 1.22067e-06
9.44923e-09 1.89576e-05 1.53481e-06
5.63309e-09 1.68474e-05 1.37519e-06
-0.000447266 -3.08343e-07 8.70146e-07
-0.00046718 -2.57501e-07 9.39656e-07
-0.00048513 -1.9411e-07 9.88479e-07
0.00237475 1.5837e-06 -1.68348e-06
2.63021e-08 2.98103e-05 3.57431e-06
1.85758e-08 2.66865e-05 3.2569e-06
1.22664e-08 2.37637e-05 2.93989e-06
0.00243508 1.56293e-06 -1.91036e-06
0.00248854 1.32263e-06 -1.88222e-06
0.00253613 1.04072e-06 -1.76543e-06
3.39511e-09 1.30718e-05 1.08683e-06
2.06387e-09 1.13624e-05 9.50172e-07
1.04422e-09 9.74935e-06 8.17424e-07
-0.000501316 -1.56552e-07 4.04505e-07
-0.000515558 -1.72728e-07 7.59994e-07
-0.000527975 -1.82208e-07 1.08633e-06
1.16323e-08 2.10095e-05 2.62014e-06
8.11667e-09 1.83862e-05 2.32079e-06
5.28326e-09 1.58746e-05 2.02157e-06
0.00261558 5.45181e-07 -1.68786e-06
0.00264744 6.06718e-07 -3.29065e-06
0.00257867 4.5432e-07 2.50934e-08
-1.58876e-10 1.26916e-06 -7.15859e-08
-1.0896e-10 1.01088e-06 -5.7302e-08
-7.14245e-11 7.82704e-07 -4.45422e-08
-3.63926e-05 -1.25274e-08 1.29078e-08
-3.58693e-05 -1.16375e-08 2.64698e-08
-3.54471e-05 -1.07111e-08 3.79727e-08
-1.14626e-10 9.55506e-07 -4.50195e-08
-8.19075e-11 7.48838e-07 -3.53946e-08
-5.6633e-11 5.71205e-07 -2.70462e-08
-8.39579e-05 -1.6425e-08 -3.04135e-08
-8.39052e-05 -1.04423e-08 7.36023e-08
-8.38562e-05 -4.18673e-09 1.73041e-07
-9.215e-11 9.28941e-07 -2.96057e-08
-7.01999e-11 7.23427e-07 -2.31418e-08
-5.16882e-11 5.4758e-07 -1.75611e-08
-0.000145182 -3.56134e-08 -3.69855e-08
-0.000145908 -1.63121e-08 9.81465e-08
-0.000146478 3.97311e-09 2.2319e-07
-7.84133e-11 1.37704e-06 -1.53894e-08
-7.16489e-11 1.08996e-06 -1.22945e-08
-6.14017e-11 8.35531e-07 -9.53718e-09
-0.000221011 -6.54704e-08 -2.94354e-08
-0.000222912 -3.50314e-08 1.8214e-07
-0.000224416 -2.76034e-09 3.81858e-07
2.82306e-11 2.53719e-06 3.75491e-08
-2.40672e-11 2.04593e-06 3.02361e-08
-5.31867e-11 1.59285e-06 2.33295e-08
-0.000312158 -9.85112e-08 -2.02363e-08
-0.00031573 -5.41564e-08 2.96856e-07
-0.000318567 -6.87586e-09 6.01709e-07
5.13687e-10 4.70095e-06 2.19889e-07
2.69272e-10 3.8352e-06 1.80063e-07
9.78499e-11 3.01524e-06 1.41462e-07
-0.000419186 -1.31053e-07 -4.05444e-08
-0.00042504 -7.26283e-08 4.30076e-07
-0.000429703 -1.00966e-08 8.90646e-07
-3.78851e-11 5.74186e-07 -3.2796e-08
-1.94692e-11 3.7749e-07 -2.16533e-08
-7.08642e-12 1.87229e-07 -1.07767e-08
3.19475e-15 -2.4683e-10 1.42606e-11
-3.51274e-05 -8.5062e-09 -2.7539e-08
-3.49122e-05 -9.47248e-09 -1.262e-08
-3.48041e-05 -1.03682e-08 -2.12991e-10
-2.93814e-11 4.13834e-07 -1.96387e-08
-1.70978e-11 2.6959e-07 -1.28621e-08
-7.46646e-12 1.33042e-07 -6.37628e-09
-8.38156e-05 -7.75628e-09 -1.30404e-07
-8.37859e-05 -9.19522e-09 -1.11903e-08
-8.37702e-05 -1.04568e-08 1.05798e-07
-2.86529e-11 3.93631e-07 -1.26439e-08
-1.84519e-11 2.54741e-07 -8.22268e-09
-9.00281e-12 1.25168e-07 -4.0603e-09
-0.000146899 -3.39417e-08 -1.51654e-07
-0.000147178 -3.10172e-08 4.35128e-09
-0.000147316 -2.77574e-08 1.57885e-07
-3.79653e-11 6.06121e-07 -6.94719e-09
-2.83587e-11 3.94606e-07 -4.5404e-09
-1.57013e-11 1.94544e-07 -2.2646e-09
-0.000225536 -6.44373e-08 -2.0458e-07
-0.00022628 -5.86126e-08 4.91549e-08
-0.00022665 -5.21666e-08 3.0011e-07
-4.44465e-11 1.16954e-06 1.70933e-08
-4.60963e-11 7.67971e-07 1.12721e-08
-3.10509e-11 3.80558e-07 5.54077e-09
-0.000320685 -9.58159e-08 -2.82547e-07
-0.000322094 -8.61118e-08 1.07711e-07
-0.000322796 -7.54072e-08 4.94695e-07
2.16411e-11 2.23098e-06 1.04846e-07
-4.03112e-11 1.47305e-06 6.95584e-08
-4.68714e-11 7.32367e-07 3.45408e-08
-0.000433192 -1.27063e-07 -4.07973e-07
-0.000435516 -1.1579e-07 1.79783e-07
-0.000436676 -1.03069e-07 7.63909e-07
-1.3872e-15 1.23402e-10 1.75862e-12
-2.55714e-15 2.16173e-10 1.012e-11