# vtk DataFile Version 3.0
vtk output
ASCII
DATASET POLYDATA
POINTS 12928 float
0.166738 0.650065 -0.0351033
0.177054 0.644993 -0.0349651
0.186822 0.649962 -0.0370484
0.186915 0.639954 -0.0363654
0.197237 0.644896 -0.0363035
0.207529 0.649844 -0.0362948
0.389739 0.649285 -0.0358799
0.187 0.629959 -0.0356807
0.197316 0.634901 -0.0356317
0.207596 0.63985 -0.0356325
0.217846 0.644791 -0.035698
0.228087 0.649734 -0.0358078
0.248515 0.64968 -0.03572
0.268742 0.649609 -0.0356679
0.319174 0.644438 -0.0356216
0.288892 0.649532 -0.0355857
0.308977 0.649476 -0.035655
0.329225 0.649415 -0.0358611
0.349339 0.64938 -0.0357574
0.37972 0.644295 -0.0356582
0.369438 0.649315 -0.0357867
0.40976 0.649265 -0.0357859
0.439859 0.644208 -0.0355579
0.429825 0.64923 -0.0357537
0.449875 0.649205 -0.0358161
0.46991 0.649204 -0.0357643
0.489948 0.649208 -0.0358039
0.228131 0.639729 -0.0351598
0.238333 0.644684 -0.0353825
0.258633 0.644649 -0.0354649
0.278845 0.644568 -0.035288
0.329237 0.639415 -0.0352153
0.298951 0.6445 -0.0352905
0.339271 0.644393 -0.0354967
0.369451 0.639318 -0.035148
0.389732 0.639281 -0.0352454
0.359406 0.644342 -0.0354278
0.399743 0.644272 -0.0355231
0.419765 0.644253 -0.035458
0.449867 0.639207 -0.0351838
0.489937 0.63921 -0.0351765
0.459882 0.644204 -0.0354837
0.479916 0.644205 -0.0354805
0.187095 0.619964 -0.035029
0.197391 0.624917 -0.0349824
0.207658 0.629865 -0.0349796
0.217898 0.634794 -0.0350465
0.258663 0.634651 -0.0348068
0.248546 0.639672 -0.0350657
0.268772 0.639606 -0.0350211
0.288917 0.639531 -0.0349506
0.319179 0.634445 -0.0349773
0.33928 0.634401 -0.0348466
0.308995 0.639475 -0.035024
0.349356 0.639382 -0.0351219
0.359418 0.634351 -0.0347775
0.379715 0.634297 -0.0350079
0.399741 0.634275 -0.0348654
0.419761 0.634257 -0.0348059
0.409749 0.63926 -0.0351604
0.429817 0.639229 -0.0351414
0.439841 0.634215 -0.0349329
0.459873 0.634212 -0.034839
0.479907 0.634214 -0.0348381
0.469888 0.639205 -0.0351602
0.61027 0.649282 -0.0358841
0.500036 0.644213 -0.035544
0.560143 0.644205 -0.0355642
0.510049 0.649207 -0.0358085
0.530088 0.649202 -0.03577
0.550125 0.649202 -0.0358224
0.570178 0.649227 -0.0357601
0.620291 0.644291 -0.035661
0.590246 0.649261 -0.0357917
0.630574 0.649312 -0.0357889
0.650677 0.649377 -0.0357577
0.51006 0.639209 -0.0351812
0.550134 0.639205 -0.0351901
0.520082 0.644203 -0.0354856
0.540118 0.644201 -0.0354897
0.610277 0.639277 -0.0352493
0.630562 0.639315 -0.0351498
0.58024 0.64425 -0.0354641
0.600265 0.644268 -0.0355281
0.640608 0.644339 -0.0354299
0.500062 0.634218 -0.0349327
0.520091 0.634212 -0.0348434
0.540127 0.63421 -0.0348451
0.560162 0.634212 -0.0349392
0.530111 0.639202 -0.0351659
0.570186 0.639226 -0.0351477
0.580244 0.634253 -0.0348119
0.600268 0.634271 -0.0348701
0.620297 0.634293 -0.0350104
0.590258 0.639256 -0.0351659
0.640597 0.634348 -0.0347793
0.65066 0.63938 -0.0351217
0.813176 0.649959 -0.0370563
0.792468 0.649841 -0.0363022
0.80276 0.644893 -0.0363112
0.813083 0.639952 -0.0363735
0.680817 0.644437 -0.0356288
0.670766 0.649413 -0.0358684
0.691015 0.649474 -0.0356637
0.711101 0.649529 -0.0355941
0.731252 0.649606 -0.035676
0.782151 0.644788 -0.0357054
0.75148 0.649677 -0.0357282
0.771909 0.649731 -0.0358154
0.792401 0.639847 -0.0356399
0.802681 0.634899 -0.0356393
0.812997 0.629956 -0.0356899
0.670753 0.639414 -0.0352215
0.660719 0.644391 -0.0355028
0.701041 0.644498 -0.0352986
0.721148 0.644566 -0.035296
0.771864 0.639726 -0.0351673
0.741361 0.644646 -0.0354724
0.761662 0.644681 -0.0353903
0.660709 0.6344 -0.0348518
0.680811 0.634444 -0.0349837
0.690997 0.639473 -0.0350319
0.711075 0.639529 -0.0349584
0.731221 0.639604 -0.0350285
0.74133 0.634649 -0.0348139
0.751449 0.63967 -0.0350737
0.782098 0.634792 -0.0350536
0.792338 0.629863 -0.0349869
0.802606 0.624915 -0.0349894
0.812902 0.619961 -0.0350375
0.833262 0.650065 -0.0351055
0.822945 0.644993 -0.0349677
0.176974 0.654999 -0.0355991
0.166648 0.660052 -0.0357164
0.176887 0.664989 -0.0362283
0.166544 0.670053 -0.0363578
0.176793 0.674988 -0.0368482
0.166437 0.680051 -0.0369822
0.176711 0.684978 -0.0374782
0.166334 0.690041 -0.0376064
0.12467 0.730287 -0.0372459
0.176622 0.694962 -0.0381076
0.166231 0.700024 -0.0382305
0.176533 0.704943 -0.0387308
0.166126 0.710005 -0.0388394
0.176441 0.71492 -0.0393462
0.176354 0.724894 -0.0399322
0.165929 0.729954 -0.0400234
0.166036 0.719981 -0.0394467
0.155635 0.725035 -0.039286
0.145234 0.7301 -0.0389934
0.155725 0.715057 -0.0387038
0.145337 0.720126 -0.0384342
0.155834 0.705079 -0.0381147
0.134968 0.7252 -0.0379612
0.145453 0.71015 -0.0378653
0.155949 0.695096 -0.0375071
0.14556 0.700162 -0.0372754
0.135091 0.715217 -0.0374176
0.124774 0.720304 -0.0367141
0.135206 0.705228 -0.0368564
0.156063 0.68511 -0.03689
0.145684 0.690178 -0.0366721
0.12491 0.710319 -0.0361707
0.135342 0.695243 -0.0362758
0.156186 0.675113 -0.0362628
0.145816 0.680184 -0.0360572
0.135473 0.685255 -0.0356719
0.125047 0.700327 -0.0356044
0.1563 0.665112 -0.0356304
0.145943 0.670184 -0.0354305
0.135612 0.675258 -0.0350482
0.12519 0.690333 -0.0350182
0.156413 0.655123 -0.0350042
0.14608 0.660181 -0.0347919
0.134855 0.735181 -0.0385205
0.176265 0.734869 -0.0405528
0.15552 0.735011 -0.0398148
0.104173 0.810187 -0.0369053
0.124541 0.740261 -0.0378302
0.14509 0.740086 -0.0395818
0.165807 0.739939 -0.0406244
0.104286 0.800193 -0.0363513
0.104407 0.790196 -0.0357952
0.104539 0.780205 -0.0352423
0.134725 0.745152 -0.0391317
0.176157 0.74485 -0.0411714
0.155373 0.744994 -0.0404635
0.124406 0.750236 -0.0384256
0.144965 0.750064 -0.0402006
0.165714 0.749918 -0.0411996
0.114255 0.805105 -0.0385983
0.114374 0.795109 -0.0380116
0.114499 0.785112 -0.0374336
0.114618 0.77512 -0.0368899
0.114715 0.765154 -0.0363741
0.134598 0.755132 -0.0397343
0.155258 0.754969 -0.0410956
0.176056 0.754824 -0.0417887
0.124268 0.760216 -0.0390365
0.144843 0.76004 -0.0408452
0.165594 0.759891 -0.0418294
0.134478 0.765113 -0.0403697
0.155143 0.76494 -0.0417578
0.175982 0.764796 -0.0423993
0.124123 0.7702 -0.0396737
0.12396 0.780187 -0.0403311
0.123839 0.790151 -0.0409114
0.123715 0.80012 -0.0414953
0.123593 0.810088 -0.042062
0.144718 0.770016 -0.0415115
0.165485 0.76986 -0.0425126
0.134338 0.775094 -0.041044
0.155024 0.774912 -0.042447
0.175875 0.774763 -0.0430751
0.13418 0.785061 -0.0417051
0.134068 0.795026 -0.0423124
0.133965 0.805001 -0.042907
0.14458 0.779995 -0.0422097
0.165375 0.77983 -0.0432186
0.154915 0.784886 -0.0431225
0.175764 0.784736 -0.0437994
0.14448 0.789956 -0.0428424
0.165299 0.789792 -0.0438666
0.154829 0.794854 -0.0437711
0.175698 0.794701 -0.044458
0.144381 0.799928 -0.0434795
0.144287 0.80991 -0.0440911
0.165224 0.799762 -0.044523
0.154747 0.804829 -0.044415
0.175635 0.804674 -0.0451184
0.165153 0.809745 -0.0451806
0.114819 0.755186 -0.0358558
0.114934 0.745215 -0.0353216
0.115059 0.735245 -0.034761
0.10469 0.770238 -0.0346715
0.0942412 0.815272 -0.0348523
0.0941045 0.825259 -0.0353632
0.0937609 0.855209 -0.0369886
0.0933479 0.885092 -0.0388286
0.0935114 0.875129 -0.0381656
0.09366 0.865175 -0.0375553
0.0938722 0.845223 -0.0364261
0.0837169 0.890331 -0.0360314
0.0939913 0.835244 -0.0358898
0.0838518 0.880349 -0.0354401
0.0839799 0.870368 -0.0348893
0.114118 0.815086 -0.0392102
0.133854 0.814987 -0.0434973
0.154655 0.814817 -0.0450514
0.175567 0.814663 -0.0457838
0.104032 0.820164 -0.0374614
0.103916 0.830142 -0.0380338
0.103787 0.840131 -0.0385963
0.103638 0.850103 -0.0392217
0.103497 0.860082 -0.0398423
0.103369 0.870055 -0.0405057
0.103251 0.880009 -0.0411565
0.103125 0.889956 -0.0418203
0.123462 0.820067 -0.0426245
0.144176 0.819893 -0.0446988
0.165065 0.819734 -0.0458277
0.113964 0.825062 -0.0398346
0.133731 0.82497 -0.0440946
0.154556 0.824805 -0.0456843
0.175492 0.824656 -0.0464489
0.113215 0.884887 -0.0437617
0.123336 0.830056 -0.0432109
0.144072 0.829883 -0.045331
0.164965 0.829715 -0.046501
0.113823 0.835039 -0.0404543
0.113666 0.845014 -0.0411298
0.113545 0.854979 -0.0417747
0.113438 0.864954 -0.0424122
0.113328 0.874911 -0.0430732
0.133608 0.834961 -0.0447103
0.154458 0.8348 -0.0463333
0.1754 0.834646 -0.0471446
0.123201 0.840055 -0.0438149
0.143937 0.839873 -0.0459971
0.164881 0.839719 -0.0471667
0.123092 0.850054 -0.0443746
0.122935 0.860042 -0.0450452
0.12277 0.870046 -0.0457687
0.122626 0.880059 -0.0464748
0.122453 0.89006 -0.0472228
0.133491 0.844965 -0.0453513
0.154344 0.844799 -0.0470311
0.175332 0.844666 -0.0478408
0.143829 0.849869 -0.0466653
0.1648 0.849732 -0.0478483
0.133356 0.854958 -0.0459864
0.133232 0.864968 -0.0466591
0.133075 0.87497 -0.0473721
0.132948 0.884997 -0.0480989
0.154252 0.854805 -0.0477085
0.175265 0.85468 -0.0485228
0.143729 0.85988 -0.0473046
0.16472 0.859742 -0.0485373
0.143608 0.869891 -0.0479762
0.143491 0.879911 -0.0486795
0.143344 0.889922 -0.0494226
0.15416 0.864823 -0.0483771
0.175196 0.864695 -0.0492243
0.164621 0.869762 -0.049242
0.15405 0.874837 -0.0490929
0.175102 0.874713 -0.0499359
0.153921 0.88486 -0.0498283
0.164525 0.87978 -0.0499738
0.175025 0.884741 -0.0506797
0.16442 0.889799 -0.0507165
0.0931956 0.89509 -0.0394219
0.0835714 0.900263 -0.0366289
0.0930269 0.905059 -0.040045
0.083412 0.91017 -0.0372541
0.0929369 0.915033 -0.040608
0.0833151 0.920134 -0.0377967
0.0928536 0.925004 -0.0411909
0.0832344 0.930096 -0.0383633
0.0735988 0.965134 -0.0367577
0.0927758 0.934967 -0.0417728
0.0831733 0.940051 -0.0389356
0.0829507 0.970019 -0.0407503
0.0830534 0.960005 -0.0401438
0.0831215 0.950021 -0.0395284
0.092722 0.944949 -0.0423614
0.0926787 0.954952 -0.0429779
0.092627 0.965013 -0.0436249
0.0736598 0.955174 -0.0361731
0.0737029 0.94527 -0.0356313
0.0737457 0.93536 -0.0351296
0.073809 0.92545 -0.0345643
0.113079 0.894839 -0.0444633
0.132783 0.894993 -0.0488616
0.153809 0.894875 -0.0505615
0.174922 0.894755 -0.0514139
0.102983 0.899906 -0.0424876
0.102856 0.9099 -0.0430771
0.102772 0.919895 -0.0436243
0.102697 0.929901 -0.0442072
0.102627 0.93992 -0.0448082
0.102582 0.949945 -0.045393
0.102551 0.959991 -0.0459958
0.102513 0.97006 -0.0466592
0.12228 0.900033 -0.0479693
[...]
POINT_DATA 12928
VECTORS alpha float
2.377e-06 -1.53406e-08 -1.67653e-08
-9.25502e-08 1.8468e-05 -1.21227e-06
2.51222e-06 -1.74112e-08 1.2015e-07
2.4207e-06 -1.64501e-08 1.13469e-07
-9.68729e-08 1.82991e-05 -1.2142e-06
2.6077e-06 -1.60462e-08 9.32704e-08
3.2054e-06 -3.52179e-09 2.4591e-08
2.3684e-06 -1.58486e-08 1.08274e-07
-9.72549e-08 1.83548e-05 -1.21767e-06
2.51242e-06 -1.50854e-08 8.85545e-08
-5.22701e-08 1.71806e-05 -1.1471e-06
2.69935e-06 -1.38444e-08 5.30761e-08
2.78393e-06 -1.15965e-08 1.68295e-08
2.85409e-06 -1.15441e-08 2.78363e-08
-3.20005e-09 8.98183e-06 -6.29502e-07
2.92035e-06 -9.26368e-09 6.75101e-09
2.98422e-06 -6.75849e-09 -6.18955e-09
3.05978e-06 -6.87536e-09 2.05091e-08
3.10844e-06 -5.58614e-09 6.78e-09
3.47317e-10 5.77502e-06 -4.02957e-07
3.15006e-06 -3.51959e-09 -1.80613e-09
3.24195e-06 -2.93424e-09 1.10228e-08
1.07658e-09 2.88696e-06 -2.04787e-07
3.27214e-06 -1.1437e-09 2.23449e-09
3.29728e-06 -4.0531e-10 1.62026e-08
3.31291e-06 3.05069e-10 9.23473e-10
3.32125e-06 1.02258e-09 -1.41983e-08
2.60145e-06 -1.29168e-08 5.1784e-08
-1.36438e-08 1.55055e-05 -1.03675e-06
-2.41794e-08 1.36551e-05 -9.4102e-07
-7.21514e-09 1.18883e-05 -8.16655e-07
2.95009e-06 -6.4978e-09 1.91483e-08
7.3593e-09 1.0325e-05 -7.05022e-07
1.84188e-09 7.81405e-06 -5.4961e-07
3.03747e-06 -3.46605e-09 -1.5811e-09
3.09007e-06 -3.50044e-09 2.24046e-08
6.43923e-09 6.76574e-06 -4.76959e-07
4.4433e-10 4.80774e-06 -3.37456e-07
3.29072e-10 3.84692e-06 -2.70882e-07
3.17938e-06 -4.90317e-10 1.51408e-08
3.2025e-06 9.46033e-10 -1.40006e-08
6.2892e-10 1.92414e-06 -1.36815e-07
2.47758e-10 9.6183e-07 -6.83362e-08
2.31706e-06 -1.49663e-08 1.05801e-07
-9.89548e-08 1.84089e-05 -1.22923e-06
2.45874e-06 -1.43904e-08 8.73157e-08
-5.3196e-08 1.72338e-05 -1.15011e-06
-2.61045e-08 1.37016e-05 -9.43417e-07
2.68318e-06 -1.10519e-08 1.7004e-08
2.75074e-06 -1.08359e-08 2.61431e-08
2.8153e-06 -8.75894e-09 5.95211e-09
-4.16106e-09 9.01471e-06 -6.32628e-07
7.58701e-10 7.84421e-06 -5.50729e-07
2.8776e-06 -6.59353e-09 -5.77037e-09
2.99624e-06 -5.32994e-09 5.81418e-09
5.92082e-09 6.79257e-06 -4.78249e-07
-2.31008e-10 5.79788e-06 -4.0578e-07
-5.49978e-11 4.82742e-06 -3.38574e-07
7.45068e-11 3.86275e-06 -2.71724e-07
3.12542e-06 -2.90069e-09 9.34042e-09
3.15464e-06 -1.0979e-09 1.59261e-09
8.67718e-10 2.89843e-06 -2.06092e-07
5.09923e-10 1.93203e-06 -1.37117e-07
2.17049e-10 9.65776e-07 -6.84866e-08
3.19407e-06 1.62126e-10 1.94175e-10
3.2058e-06 3.50101e-09 -2.42521e-08
2.39599e-15 9.21563e-11 -6.51685e-12
1.1692e-09 -2.88676e-06 2.04785e-07
3.32149e-06 -1.13214e-09 1.39935e-08
3.3132e-06 -3.99808e-10 -1.06831e-09
3.2976e-06 3.26885e-10 -1.62551e-08
3.2725e-06 1.08819e-09 -2.19401e-09
7.47597e-10 -5.77491e-06 4.03147e-07
3.24233e-06 2.89529e-09 -1.08467e-08
3.15047e-06 3.51699e-09 2.31142e-09
3.10885e-06 5.63382e-09 -6.13319e-09
3.20276e-06 -1.06229e-09 1.37999e-08
3.17972e-06 4.04448e-10 -1.51842e-08
2.54688e-10 -9.61625e-07 6.83219e-08
6.66737e-10 -1.92393e-06 1.36801e-07
3.0905e-06 3.46914e-09 -2.20646e-08
3.03791e-06 3.45597e-09 2.0977e-09
5.00002e-10 -3.84674e-06 2.70906e-07
7.17803e-10 -4.80759e-06 3.37541e-07
7.00904e-09 -6.76556e-06 4.77186e-07
4.11654e-15 8.77081e-11 -6.22128e-12
2.26379e-10 -9.65578e-07 6.84675e-08
5.52885e-10 -1.93182e-06 1.37093e-07
9.68703e-10 -2.89823e-06 2.06076e-07
3.19437e-06 -2.63907e-10 -3.31606e-10
3.15502e-06 1.0348e-09 -1.54236e-09
2.57355e-10 -3.86257e-06 2.7173e-07
2.34756e-10 -4.82727e-06 3.38631e-07
1.91136e-10 -5.79778e-06 4.0593e-07
3.12583e-06 2.85367e-09 -9.15382e-09
6.5205e-09 -6.79237e-06 4.7841e-07
2.99669e-06 5.37064e-09 -5.15343e-09
2.51228e-06 1.74323e-08 -1.20246e-07
2.60776e-06 1.60699e-08 -9.32802e-08
-9.79261e-08 -1.82989e-05 1.2138e-06
2.42081e-06 1.64698e-08 -1.13573e-07
-4.08864e-09 -8.98145e-06 6.30371e-07
3.05985e-06 6.81124e-09 -2.06479e-08
2.98427e-06 6.7016e-09 6.18106e-09
2.92041e-06 9.22128e-09 -6.71382e-09
2.85416e-06 1.15082e-08 -2.77604e-08
-5.34301e-08 -1.71804e-05 1.14701e-06
2.78401e-06 1.15752e-08 -1.67325e-08
2.69942e-06 1.38656e-08 -5.30258e-08
2.51253e-06 1.51046e-08 -8.85727e-08
-9.80508e-08 -1.83546e-05 1.21738e-06
2.36854e-06 1.58614e-08 -1.08407e-07
2.9502e-06 6.43006e-09 -1.92985e-08
1.0368e-09 -7.81367e-06 5.50453e-07
6.41737e-09 -1.03247e-05 7.05849e-07
-8.25476e-09 -1.1888e-05 8.17446e-07
2.60157e-06 1.29343e-08 -5.17586e-08
-2.53104e-08 -1.36548e-05 9.41708e-07
-1.48219e-08 -1.55053e-05 1.03696e-06
8.96323e-11 -7.8438e-06 5.51498e-07
-4.89455e-09 -9.0143e-06 6.33425e-07
2.87769e-06 6.53235e-09 5.74653e-09
2.8154e-06 8.71211e-09 -5.93651e-09
2.75085e-06 1.07954e-08 -2.60935e-08
-2.7005e-08 -1.37012e-05 9.44025e-07
2.6833e-06 1.10265e-08 -1.69333e-08
-5.40939e-08 -1.72336e-05 1.15013e-06
2.45889e-06 1.44077e-08 -8.73886e-08
-9.95116e-08 -1.84089e-05 1.22918e-06
2.31725e-06 1.49571e-08 -1.05925e-07
2.37692e-06 1.53558e-08 1.67745e-08
-9.24372e-08 -1.84676e-05 1.21113e-06
-8.42441e-08 1.84086e-05 -1.20236e-06
2.43726e-06 -1.59005e-08 -1.72877e-08
-7.48368e-08 1.8349e-05 -1.2172e-06
2.50401e-06 -1.64323e-08 -1.74378e-08
-7.5275e-08 1.82868e-05 -1.22392e-06
2.55545e-06 -1.68653e-08 -1.85434e-08
-7.38322e-08 1.82213e-05 -1.23266e-06
2.62655e-06 -1.74946e-08 -2.05893e-08
2.58449e-06 -1.66838e-08 -2.62125e-07
-7.59204e-08 1.81549e-05 -1.24197e-06
2.69797e-06 -1.81922e-08 -2.33495e-08
-7.78725e-08 1.80874e-05 -1.24423e-06
2.7731e-06 -1.88004e-08 -2.64321e-08
-7.66957e-08 1.80183e-05 -1.23287e-06
-7.07365e-08 1.79476e-05 -1.21144e-06
2.90044e-06 -1.98893e-08 -3.49211e-08
2.83109e-06 -1.93699e-08 -2.9224e-08
-9.70337e-08 1.70069e-05 -1.11536e-06
2.74568e-06 -1.81872e-08 -1.45087e-07
-9.78525e-08 1.7073e-05 -1.12983e-06
2.68221e-06 -1.77768e-08 -1.36868e-07
-1.0225e-07 1.71406e-05 -1.14308e-06
-1.28689e-07 1.52527e-05 -9.65799e-07
2.62733e-06 -1.73494e-08 -1.30377e-07
-1.06093e-07 1.72072e-05 -1.15461e-06
2.55748e-06 -1.68159e-08 -1.23663e-07
-1.35406e-07 1.53193e-05 -9.68233e-07
2.52686e-06 -1.64545e-08 -2.50142e-07
-1.37109e-07 1.53826e-05 -9.73937e-07
-1.07203e-07 1.72722e-05 -1.14597e-06
2.48997e-06 -1.61773e-08 -1.17804e-07
2.47521e-06 -1.59339e-08 -2.4038e-07
-1.40922e-07 1.54441e-05 -9.88207e-07
-1.10009e-07 1.73343e-05 -1.14955e-06
2.4231e-06 -1.56503e-08 -1.12854e-07
-1.4077e-07 1.55039e-05 -9.84634e-07
2.41017e-06 -1.53539e-08 -2.30601e-07
-1.11209e-07 1.7395e-05 -1.13669e-06
2.37481e-06 -1.52553e-08 -1.09334e-07
-1.42297e-07 1.5562e-05 -9.94431e-07
2.34728e-06 -1.46406e-08 -2.21936e-07
-1.19063e-07 1.74529e-05 -1.11934e-06
2.31243e-06 -1.47637e-08 -1.05876e-07
-1.26339e-07 1.51895e-05 -9.54693e-07
-6.01814e-08 1.78737e-05 -1.2024e-06
-9.31559e-08 1.69372e-05 -1.11574e-06
2.9364e-06 -1.92435e-08 -6.1305e-07
2.6393e-06 -1.67688e-08 -2.73261e-07
2.80616e-06 -1.8565e-08 -1.52725e-07
2.966e-06 -2.04521e-08 -3.80667e-08
2.86486e-06 -1.86828e-08 -5.90423e-07
2.79714e-06 -1.82393e-08 -5.69673e-07
2.73061e-06 -1.80751e-08 -5.49462e-07
-1.26563e-07 1.51267e-05 -9.67936e-07
-4.7568e-08 1.77994e-05 -1.18239e-06
-8.38574e-08 1.68658e-05 -1.10721e-06
2.69514e-06 -1.69266e-08 -2.84784e-07
2.86637e-06 -1.9093e-08 -1.59253e-07
3.03124e-06 -2.11205e-08 -4.59885e-08
-1.16533e-07 1.32161e-05 -8.1456e-07
-1.22402e-07 1.32929e-05 -8.17746e-07
-1.26877e-07 1.33666e-05 -8.26848e-07
-1.28766e-07 1.34357e-05 -8.34833e-07
-1.29564e-07 1.35025e-05 -8.42444e-07
-1.23532e-07 1.50594e-05 -9.92682e-07
-7.44315e-08 1.67941e-05 -1.12897e-06
-3.74602e-08 1.77231e-05 -1.2015e-06
2.75292e-06 -1.73475e-08 -2.96378e-07
2.92763e-06 -1.97851e-08 -1.65913e-07
3.099e-06 -2.19764e-08 -5.17799e-08
-1.27991e-07 1.49909e-05 -1.0163e-06
-7.23448e-08 1.67208e-05 -1.14858e-06
-4.10092e-08 1.76492e-05 -1.22152e-06
2.8917e-06 -1.86422e-08 -3.15886e-07
2.96315e-06 -1.95585e-08 -3.27798e-07
3.0374e-06 -1.96685e-08 -3.41342e-07
3.11269e-06 -1.9773e-08 -3.54876e-07
3.19253e-06 -1.98772e-08 -3.70268e-07
3.08004e-06 -2.12356e-08 -1.77661e-07
3.26344e-06 -2.35758e-08 -5.66554e-08
-1.33121e-07 1.4916e-05 -1.03359e-06
-7.07426e-08 1.66424e-05 -1.16451e-06
-3.81041e-08 1.75666e-05 -1.24831e-06
-1.26296e-07 1.48434e-05 -1.04416e-06
-1.27701e-07 1.47738e-05 -1.04186e-06
-1.32253e-07 1.47021e-05 -1.04453e-06
3.15668e-06 -2.22805e-08 -1.8453e-07
3.34433e-06 -2.46923e-08 -5.97058e-08
-6.75529e-08 1.65688e-05 -1.1831e-06
-2.75158e-08 1.749e-05 -1.26122e-06
3.23613e-06 -2.25978e-08 -1.92551e-07
3.42751e-06 -2.50369e-08 -6.35727e-08
-6.93185e-08 1.64955e-05 -1.18759e-06
-2.25131e-08 1.74155e-05 -1.26403e-06
3.31598e-06 -2.29141e-08 -2.00474e-07
3.39941e-06 -2.3101e-08 -2.10916e-07
3.51091e-06 -2.53944e-08 -6.71441e-08
-7.50455e-08 1.64216e-05 -1.19627e-06
-2.24335e-08 1.73401e-05 -1.27048e-06
3.59779e-06 -2.55512e-08 -7.26871e-08
-1.30196e-07 1.3564e-05 -8.46601e-07
-1.29004e-07 1.36247e-05 -8.40782e-07
-1.31801e-07 1.36848e-05 -8.36088e-07
2.66674e-06 -1.70237e-08 -5.31074e-07
-1.04968e-07 1.39018e-05 -8.00925e-07
-9.0968e-08 1.38209e-05 -8.20093e-07
-6.91762e-08 1.35711e-05 -8.45121e-07
-7.00283e-08 1.32921e-05 -8.51998e-07
-6.03056e-08 1.33889e-05 -8.52868e-07
-5.89312e-08 1.34819e-05 -8.50193e-07
-7.05115e-08 1.36553e-05 -8.43957e-07
3.39384e-06 -2.01569e-08 -1.10452e-06
-7.79896e-08 1.37382e-05 -8.34612e-07
3.28298e-06 -2.0127e-08 -1.05746e-06
3.18507e-06 -1.98352e-08 -1.01516e-06
-1.09251e-07 1.3138e-05 -8.14609e-07
-1.30775e-07 1.4629e-05 -1.05318e-06
-7.17353e-08 1.63452e-05 -1.20596e-06
-1.73789e-08 1.72635e-05 -1.27961e-06
3.01127e-06 -1.93664e-08 -6.3533e-07
3.09169e-06 -1.9739e-08 -6.59454e-07
3.17973e-06 -2.05072e-08 -6.8391e-07
3.27762e-06 -2.0735e-08 -7.09362e-07
3.37825e-06 -2.09844e-08 -7.37548e-07
3.49309e-06 -2.02431e-08 -7.73108e-07
3.60821e-06 -1.85828e-08 -8.12236e-07
3.73903e-06 -1.72011e-08 -8.56732e-07
3.27438e-06 -1.95032e-08 -3.85319e-07
3.48534e-06 -2.27194e-08 -2.20521e-07
3.68656e-06 -2.51502e-08 -7.75681e-08
-1.0477e-07 1.30582e-05 -8.2503e-07
-1.33519e-07 1.4554e-05 -1.07217e-06
-7.10399e-08 1.62662e-05 -1.22508e-06
-1.50828e-08 1.71846e-05 -1.30115e-06
-8.85408e-08 1.25611e-05 -8.73933e-07
3.3625e-06 -1.93816e-08 -4.01516e-07
3.5778e-06 -2.2598e-08 -2.31087e-07
3.7829e-06 -2.50438e-08 -8.22202e-08
-9.42265e-08 1.29773e-05 -8.36116e-07
-8.52998e-08 1.28963e-05 -8.41915e-07
-8.0473e-08 1.28173e-05 -8.53563e-07
-8.27037e-08 1.27353e-05 -8.65044e-07
-8.20315e-08 1.26513e-05 -8.71804e-07
-1.34984e-07 1.44788e-05 -1.08269e-06
-7.02537e-08 1.61872e-05 -1.23577e-06
-3.67132e-09 1.71037e-05 -1.30937e-06
3.45935e-06 -1.88429e-08 -4.1793e-07
3.68123e-06 -2.19982e-08 -2.40214e-07
3.88788e-06 -2.45478e-08 -8.687e-08
3.56526e-06 -1.82285e-08 -4.37275e-07
3.67987e-06 -1.7927e-08 -4.54758e-07
3.81425e-06 -1.79684e-08 -4.74191e-07
3.95058e-06 -1.8009e-08 -4.95785e-07
4.109e-06 -1.8533e-08 -5.20302e-07
-1.27003e-07 1.44034e-05 -1.07643e-06
-4.80605e-08 1.61053e-05 -1.22348e-06
7.23667e-09 1.70232e-05 -1.29623e-06
3.795e-06 -2.13809e-08 -2.50788e-07
4.00585e-06 -2.3774e-08 -9.06831e-08
-1.18525e-07 1.43262e-05 -1.07105e-06
-1.09325e-07 1.42419e-05 -1.07732e-06
-9.1839e-08 1.41502e-05 -1.07683e-06
-9.305e-08 1.40522e-05 -1.0765e-06
-4.60753e-08 1.60247e-05 -1.21576e-06
1.34776e-08 1.69409e-05 -1.28571e-06
3.91419e-06 -2.06587e-08 -2.64039e-07
4.1322e-06 -2.33354e-08 -9.55421e-08
4.05785e-06 -2.07303e-08 -2.79293e-07
4.20779e-06 -2.09192e-08 -2.9305e-07
4.38417e-06 -2.16173e-08 -3.08421e-07
-5.06171e-08 1.59436e-05 -1.20088e-06
1.53431e-08 1.68564e-05 -1.27871e-06
4.28512e-06 -2.31684e-08 -1.01931e-07
-5.48854e-08 1.58535e-05 -1.19618e-06
2.18728e-08 1.67688e-05 -1.26601e-06
-4.49916e-08 1.57549e-05 -1.2015e-06
4.44679e-06 -2.34029e-08 -1.08844e-07
8.58706e-09 1.66736e-05 -1.2755e-06
4.63757e-06 -2.45683e-08 -1.17409e-07
-6.36267e-08 1.31813e-05 -8.77578e-07
3.55236e-06 -1.99387e-08 -1.16639e-06
-6.14375e-08 1.306e-05 -8.94618e-07
3.67605e-06 -1.79988e-08 -1.21388e-06
-5.51087e-08 1.29372e-05 -8.95745e-07
3.77461e-06 -1.39785e-08 -1.2604e-06
-4.9975e-08 1.28111e-05 -8.95358e-07
3.87444e-06 -1.01855e-08 -1.30807e-06
-6.77944e-08 1.81794e-05 -1.13106e-06
-4.56423e-08 1.26857e-05 -8.87462e-07
3.95602e-06 -6.30305e-09 -1.35055e-06
4.04632e-06 2.69193e-09 -1.43012e-06
4.04312e-06 -1.07077e-09 -1.41286e-06
4.01913e-06 -3.54705e-09 -1.38829e-06
-3.49793e-08 1.25527e-05 -8.72682e-07
-2.3534e-08 1.24224e-05 -8.50462e-07
-1.78929e-08 1.22984e-05 -8.23144e-07
-8.07216e-08 1.83016e-05 -1.16155e-06
-8.92278e-08 1.84367e-05 -1.1615e-06
-9.4858e-08 1.85776e-05 -1.14293e-06
-1.13394e-07 1.87285e-05 -1.12969e-06
-8.45156e-08 1.24635e-05 -8.68083e-07
-7.62254e-08 1.39451e-05 -1.07584e-06
-3.62545e-08 1.56469e-05 -1.20863e-06
-1.34726e-09 1.65728e-05 -1.27994e-06
3.92644e-06 -1.55793e-08 -9.13871e-07
4.0723e-06 -1.42145e-08 -9.59567e-07
4.19202e-06 -1.06177e-08 -9.99644e-07
4.31398e-06 -6.72843e-09 -1.04134e-06
4.41206e-06 -2.76002e-09 -1.07766e-06
4.48499e-06 2.05832e-09 -1.10581e-06
4.50361e-06 6.28133e-09 -1.12227e-06
4.49101e-06 8.01338e-09 -1.13247e-06
4.33382e-06 -1.85077e-08 -5.53403e-07
4.63424e-06 -2.21957e-08 -3.28785e-07
4.91148e-06 -2.50752e-08 -1.2706e-07
-7.2519e-08 1.23516e-05 -8.69068e-07
-6.16836e-08 1.22293e-05 -8.81112e-07
-5.40203e-08 1.20995e-05 -8.89735e-07
-3.87391e-08 1.19639e-05 -8.92621e-07
-2.44516e-08 1.18234e-05 -8.86015e-07
-1.06552e-08 1.16745e-05 -8.70447e-07
1.57452e-08 1.15275e-05 -8.36694e-07
-5.30194e-08 1.38274e-05 -1.08359e-06
-1.83257e-08 1.55276e-05 -1.21228e-06
5.06601e-09 1.6454e-05 -1.30568e-06
4.83889e-06 -1.94525e-08 -3.48033e-07
5.14391e-06 -2.34297e-08 -1.33305e-07
4.51248e-06 -1.54727e-08 -5.81965e-07
4.66518e-06 -1.16286e-08 -6.02232e-07
4.82063e-06 -8.24905e-09 -6.24383e-07
4.94709e-06 -4.59287e-09 -6.44722e-07
5.04403e-06 -7.83623e-10 -6.57775e-07
5.06616e-06 2.65038e-09 -6.67417e-07
5.04237e-06 5.83476e-09 -6.73479e-07
-5.19513e-08 1.3712e-05 -1.08621e-06
-1.47349e-08 1.54096e-05 -1.22124e-06
1.52528e-08 1.63368e-05 -1.31693e-06
5.01268e-06 -1.43836e-08 -3.58239e-07
5.34104e-06 -1.79806e-08 -1.35785e-07
-5.6052e-08 1.35907e-05 -1.09384e-06
-1.73749e-08 1.52856e-05 -1.23658e-06
1.93389e-08 1.6217e-05 -1.32601e-06
-5.19127e-08 1.34519e-05 -1.10489e-06
-4.72951e-08 1.33075e-05 -1.09851e-06
-3.79463e-08 1.31522e-05 -1.0883e-06
-1.73581e-08 1.29921e-05 -1.06393e-06
5.19644e-06 -1.00339e-08 -3.70106e-07
5.55585e-06 -1.42328e-08 -1.37869e-07
5.34871e-06 -6.94814e-09 -3.82731e-07
5.46229e-06 -4.04609e-09 -3.92768e-07
5.49001e-06 -5.79617e-10 -4.0218e-07
5.46027e-06 1.4214e-09 -4.09189e-07
-1.8012e-08 1.51542e-05 -1.24061e-06
2.19243e-08 1.60823e-05 -1.34271e-06
5.73831e-06 -1.06858e-08 -1.41143e-07
-1.99298e-08 1.50068e-05 -1.24385e-06
1.98002e-08 1.59337e-05 -1.35134e-06
-1.27726e-08 1.48415e-05 -1.24209e-06
7.31116e-09 1.46668e-05 -1.22138e-06
5.87846e-06 -6.40332e-09 -1.43071e-07
1.96848e-08 1.5774e-05 -1.34117e-06
5.92277e-06 -4.90356e-09 -1.48668e-07
5.89637e-06 -4.26943e-09 -1.56966e-07
3.03825e-08 1.55981e-05 -1.31723e-06
-9.30999e-08 1.82411e-05 -1.21185e-06
-4.92687e-08 1.71243e-05 -1.14337e-06
-9.2689e-09 1.54537e-05 -1.03189e-06
-2.036e-08 1.36073e-05 -9.39044e-07
2.57771e-06 -1.80262e-08 1.25798e-07
2.67654e-06 -1.66264e-08 9.40403e-08
2.76999e-06 -1.42065e-08 5.44313e-08
2.85646e-06 -1.17538e-08 1.70941e-08
-8.70254e-08 1.81833e-05 -1.20969e-06
-4.18249e-08 1.70684e-05 -1.13168e-06
-3.3815e-09 1.5401e-05 -1.02586e-06
-1.59516e-08 1.35598e-05 -9.36236e-07
2.64993e-06 -1.87178e-08 1.32763e-07
2.70491e-06 -1.93305e-08 1.36655e-07
2.78052e-06 -2.00521e-08 1.38554e-07
2.85644e-06 -2.08286e-08 1.39119e-07
2.93673e-06 -2.16528e-08 1.41518e-07
2.99815e-06 -2.22324e-08 1.38194e-07
3.07065e-06 -2.29107e-08 1.35716e-07
2.75262e-06 -1.74623e-08 9.79247e-08
2.84855e-06 -1.47363e-08 5.57498e-08
2.9365e-06 -1.20298e-08 1.71962e-08
-8.18439e-08 1.81217e-05 -1.21264e-06
-3.74815e-08 1.70112e-05 -1.12842e-06
-7.63491e-10 1.53467e-05 -1.02307e-06
-1.30405e-08 1.35103e-05 -9.35582e-07
2.81191e-06 -1.82462e-08 9.81614e-08
2.90967e-06 -1.5357e-08 5.53429e-08
2.99917e-06 -1.24772e-08 1.61491e-08
-7.81786e-08 1.80608e-05 -1.21125e-06
-3.20745e-08 1.69514e-05 -1.12825e-06
-1.10963e-08 1.34597e-05 -9.35396e-07
1.30288e-09 1.52894e-05 -1.02129e-06
-7.41245e-08 1.79963e-05 -1.21543e-06
-6.99009e-08 1.79306e-05 -1.21658e-06
-6.66382e-08 1.78638e-05 -1.21575e-06
-6.13954e-08 1.7794e-05 -1.21511e-06
2.8925e-06 -1.90791e-08 9.84337e-08
2.9934e-06 -1.61745e-08 5.45058e-08
3.08577e-06 -1.32147e-08 1.40236e-08
-2.88353e-08 1.68922e-05 -1.13518e-06
2.39438e-09 1.5234e-05 -1.02486e-06
-6.5654e-09 1.3408e-05 -9.37705e-07
2.97282e-06 -1.98687e-08 9.94283e-08
3.07712e-06 -1.70903e-08 5.43332e-08
3.17171e-06 -1.38185e-08 1.1648e-08
-2.52194e-08 1.68321e-05 -1.14266e-06
3.82578e-09 1.51776e-05 -1.02783e-06
-4.54637e-09 1.33559e-05 -9.37757e-07
3.05745e-06 -2.05655e-08 1.0004e-07
3.12196e-06 -2.12201e-08 1.0112e-07
3.19735e-06 -2.18177e-08 1.0068e-07
3.16644e-06 -1.79281e-08 5.2939e-08
3.26352e-06 -1.44831e-08 1.01914e-08
-2.13071e-08 1.67709e-05 -1.14747e-06
7.05505e-09 1.51217e-05 -1.03368e-06
-2.4557e-09 1.33033e-05 -9.38876e-07
3.23681e-06 -1.86649e-08 5.086e-08
3.33626e-06 -1.51986e-08 1.13614e-08
-1.49508e-08 1.67065e-05 -1.15119e-06
-1.26593e-10 1.32504e-05 -9.40649e-07
1.27572e-08 1.5063e-05 -1.03995e-06
3.31789e-06 -1.95425e-08 4.81271e-08
3.41893e-06 -1.6001e-08 1.29977e-08
-1.13883e-09 8.94722e-06 -6.26916e-07
-4.41234e-09 1.18453e-05 -8.18e-07
8.48e-09 1.02863e-05 -7.04451e-07
3.31481e-09 7.78326e-06 -5.47665e-07
2.92801e-06 -1.19034e-08 2.86065e-08
3.06017e-06 -6.76996e-09 -6.22659e-09
3.13797e-06 -6.83741e-09 2.26847e-08
2.9951e-06 -9.59911e-09 6.52134e-09
1.91734e-09 8.91138e-06 -6.27562e-07
5.05795e-09 7.7523e-06 -5.47339e-07
1.10758e-09 1.18011e-05 -8.18638e-07
1.19885e-08 1.02464e-05 -7.04854e-07
3.00869e-06 -1.22594e-08 2.94558e-08
3.22331e-06 -6.80474e-09 2.43421e-08
3.07761e-06 -9.9799e-09 7.42661e-09
3.1435e-06 -7.05776e-09 -5.88646e-09
3.658e-09 8.87523e-06 -6.26818e-07
6.18238e-09 7.72007e-06 -5.47173e-07
3.09378e-09 1.17564e-05 -8.18048e-07
1.22779e-08 1.02062e-05 -7.05472e-07
3.07207e-06 -1.26916e-08 3.02412e-08
3.15866e-06 -1.31111e-08 3.16907e-08
3.24564e-06 -1.35717e-08 3.29884e-08
3.33835e-06 -1.40111e-08 3.46767e-08
3.41149e-06 -1.43356e-08 3.51341e-08
3.49507e-06 -1.46257e-08 3.51678e-08
3.29111e-06 -6.8264e-09 2.55677e-08
3.14305e-06 -1.04031e-08 7.88624e-09
3.2099e-06 -7.26156e-09 -5.47674e-09
5.45162e-09 8.83827e-06 -6.26809e-07
5.21715e-09 1.17109e-05 -8.16687e-07
1.28373e-08 1.0165e-05 -7.06739e-07
8.00787e-09 7.68615e-06 -5.48386e-07
3.23209e-06 -1.0959e-08 7.67171e-09
3.30003e-06 -7.59645e-09 -5.83998e-09
3.38252e-06 -6.93555e-09 2.60092e-08
8.07682e-09 8.80183e-06 -6.26396e-07
7.51944e-09 1.16658e-05 -8.17694e-07
1.38235e-08 1.01245e-05 -7.11246e-07
9.80781e-09 7.65371e-06 -5.47699e-07
3.39171e-06 -7.93227e-09 -6.06267e-09
3.47563e-06 -6.98742e-09 2.63867e-08
3.32169e-06 -1.15953e-08 7.43093e-09
8.69825e-09 1.16189e-05 -8.18722e-07
1.10906e-08 1.15701e-05 -8.21897e-07
1.2186e-08 1.15224e-05 -8.25058e-07
1.07562e-08 8.76285e-06 -6.26081e-07
1.07627e-08 7.62007e-06 -5.46243e-07
1.58024e-08 1.00813e-05 -7.14542e-07
3.57473e-06 -7.0125e-09 2.65118e-08
3.41771e-06 -1.22725e-08 6.87127e-09
3.48891e-06 -8.24248e-09 -7.03433e-09
1.24136e-08 8.72463e-06 -6.2551e-07
1.15887e-08 7.58614e-06 -5.45612e-07
1.67842e-08 1.0039e-05 -7.16323e-07
3.65385e-06 -6.92049e-09 2.62658e-08
3.49396e-06 -1.27801e-08 5.72278e-09
3.56666e-06 -8.49676e-09 -8.14553e-09
1.37714e-08 8.6863e-06 -6.25474e-07
1.76089e-08 9.99636e-06 -7.18575e-07
1.29402e-08 7.55106e-06 -5.46522e-07
3.57955e-06 -1.30112e-08 5.88599e-09
3.65483e-06 -8.9483e-09 -9.63079e-09
3.74289e-06 -6.93188e-09 2.5653e-08
-5.76836e-08 1.77242e-05 -1.21498e-06
-7.6692e-09 1.66399e-05 -1.15213e-06
1.91736e-08 1.50045e-05 -1.04287e-06
6.7805e-09 1.31942e-05 -9.39336e-07
3.27776e-06 -2.60289e-08 1.37301e-07
3.45696e-06 -2.83693e-08 1.44179e-07
3.54613e-06 -3.01994e-08 1.48471e-07
3.63704e-06 -3.10268e-08 1.5119e-07
3.72817e-06 -3.18421e-08 1.54695e-07
3.8238e-06 -3.26027e-08 1.59115e-07
3.13982e-06 -2.37937e-08 1.36753e-07
3.26873e-06 -2.25211e-08 1.03198e-07