# vtk DataFile Version 3.0
vtk output
ASCII
DATASET POLYDATA
POINTS 12625 float
0.187028 0.629955 -0.0359671
0.197338 0.634888 -0.0358324
0.187117 0.619962 -0.0352875
0.197416 0.624896 -0.0351592
0.207701 0.629835 -0.0351471
0.217947 0.634787 -0.0352136
0.238439 0.634689 -0.0348928
0.258721 0.634658 -0.0349611
0.319237 0.634451 -0.0350764
0.339328 0.634408 -0.0349268
0.359426 0.634356 -0.0348458
0.379763 0.634313 -0.0350954
0.399788 0.634292 -0.0349329
0.419808 0.634276 -0.0348567
0.439885 0.634219 -0.0349692
0.459915 0.634218 -0.0348688
0.479946 0.634222 -0.0348646
0.187207 0.609955 -0.0346034
0.177198 0.634996 -0.0344807
0.197501 0.6149 -0.0345278
0.207768 0.619851 -0.0345088
0.218003 0.624804 -0.0345642
0.228239 0.629739 -0.0346665
0.24865 0.629687 -0.0345634
0.268849 0.629616 -0.034494
0.278919 0.634577 -0.0347578
0.319243 0.624464 -0.0344213
0.309049 0.629488 -0.0344561
0.329292 0.62943 -0.0346613
0.299007 0.63451 -0.0347381
0.34937 0.629394 -0.0345582
0.379755 0.624325 -0.0344474
0.36947 0.629329 -0.0345741
0.389769 0.629302 -0.0346784
0.409788 0.629284 -0.0345643
0.429835 0.629246 -0.0345252
0.449884 0.629221 -0.0345937
0.469911 0.629221 -0.0345451
0.489941 0.629226 -0.0345901
0.238471 0.624699 -0.0342309
0.258746 0.62467 -0.0343026
0.278937 0.62459 -0.0341078
0.299026 0.624524 -0.0340932
0.339326 0.62442 -0.0342869
0.288976 0.629542 -0.0343983
0.389763 0.619314 -0.0340386
0.359431 0.624368 -0.0342063
0.39977 0.624303 -0.0343066
0.419785 0.624286 -0.0342358
0.439859 0.624232 -0.0343523
0.459885 0.62423 -0.0342555
0.479911 0.624231 -0.0342545
0.499932 0.624237 -0.0343484
0.812971 0.629955 -0.0359679
0.802662 0.634888 -0.035833
0.782053 0.634786 -0.035214
0.792299 0.629835 -0.0351478
0.812882 0.619962 -0.0352884
0.802584 0.624896 -0.03516
0.500029 0.634229 -0.0349553
0.520054 0.634222 -0.0348654
0.540085 0.634218 -0.0348693
0.560115 0.634219 -0.0349693
0.580192 0.634276 -0.0348565
0.600211 0.634292 -0.0349325
0.620236 0.634312 -0.0350946
0.640573 0.634356 -0.0348469
0.660671 0.634408 -0.0349277
0.680763 0.634451 -0.0350771
0.741279 0.634657 -0.0349614
0.761561 0.634688 -0.0348934
0.510058 0.629226 -0.0345912
0.530088 0.629221 -0.0345458
0.550116 0.629221 -0.034594
0.570165 0.629246 -0.0345251
0.620244 0.624324 -0.0344467
0.590212 0.629283 -0.034564
0.610231 0.629302 -0.0346779
0.630529 0.629328 -0.0345739
0.650629 0.629394 -0.0345593
0.680756 0.624464 -0.0344221
0.670707 0.629429 -0.0346622
0.690951 0.629488 -0.0344575
0.700993 0.634509 -0.034739
0.721081 0.634577 -0.0347583
0.731151 0.629616 -0.0344946
0.751349 0.629686 -0.0345643
0.77176 0.629738 -0.0346671
0.781997 0.624804 -0.0345649
0.792232 0.619851 -0.0345096
0.802499 0.6149 -0.0345287
0.812793 0.609956 -0.0346044
0.822801 0.634996 -0.0344815
0.520088 0.624232 -0.0342554
0.540115 0.62423 -0.034256
0.56014 0.624232 -0.0343523
0.610236 0.619313 -0.034038
0.580215 0.624285 -0.0342357
0.60023 0.624303 -0.0343061
0.640569 0.624368 -0.0342076
0.660674 0.62442 -0.0342879
0.700974 0.624523 -0.0340943
0.711024 0.629541 -0.0343992
0.721063 0.62459 -0.0341085
0.741254 0.624669 -0.034303
0.761528 0.624698 -0.0342317
0.186924 0.639957 -0.0366376
0.166883 0.640058 -0.0346277
0.177102 0.644996 -0.0350953
0.186816 0.649952 -0.0373025
0.166776 0.650057 -0.0352479
0.177019 0.654987 -0.0357211
0.186721 0.659942 -0.0379277
0.166673 0.660047 -0.0358689
0.125005 0.710262 -0.0362593
0.125126 0.700288 -0.035673
0.176932 0.664972 -0.036347
0.186641 0.669926 -0.0385411
0.166572 0.670032 -0.0364907
0.176844 0.674953 -0.0369677
0.186563 0.679909 -0.0391616
0.166469 0.680013 -0.0370983
0.135174 0.715155 -0.0374887
0.135291 0.705184 -0.0368935
0.176754 0.684931 -0.0375813
0.186494 0.689886 -0.0397434
0.17667 0.694905 -0.0381663
0.145503 0.710091 -0.0379096
0.186415 0.699862 -0.0403375
0.18632 0.709841 -0.0409844
0.176484 0.714861 -0.0393951
0.166164 0.709947 -0.0388842
0.155763 0.715001 -0.0387399
0.176586 0.704879 -0.0387875
0.166278 0.699963 -0.0382818
0.155901 0.705017 -0.0381042
0.166381 0.68999 -0.0377049
0.156011 0.695042 -0.0375741
0.145641 0.700104 -0.0373195
0.156098 0.685063 -0.0369913
0.145741 0.69013 -0.0367587
0.156205 0.675085 -0.0364025
0.135399 0.695203 -0.036332
0.145854 0.680154 -0.0361889
0.156319 0.665102 -0.035796
0.145959 0.670166 -0.035599
0.13552 0.685219 -0.0357864
0.125227 0.690305 -0.0351386
0.135633 0.67523 -0.0352243
0.156431 0.655114 -0.0351809
0.146082 0.660181 -0.0349967
0.125361 0.680319 -0.0345933
0.135767 0.665245 -0.0346436
0.156554 0.645117 -0.0345569
0.146212 0.650186 -0.0343838
0.135897 0.655256 -0.0340405
0.125496 0.670327 -0.0340258
0.104516 0.790171 -0.0360605
0.104631 0.780188 -0.0354813
0.104743 0.770194 -0.034913
0.104863 0.760198 -0.0343547
0.124878 0.720237 -0.0368353
0.145384 0.720068 -0.038512
0.186209 0.719825 -0.0416353
0.166071 0.719927 -0.0394452
0.114584 0.785091 -0.0376925
0.114714 0.775107 -0.0370711
0.114832 0.765113 -0.0364801
0.114957 0.755116 -0.035899
0.115077 0.745123 -0.0353533
0.115176 0.735158 -0.0348367
0.135045 0.725135 -0.0380893
0.155646 0.724975 -0.0393693
0.176379 0.724835 -0.0400095
0.124739 0.730217 -0.0374454
0.145261 0.730044 -0.0391546
0.186102 0.729799 -0.0423042
0.165949 0.729899 -0.0400726
0.134924 0.735115 -0.0387237
0.155529 0.734947 -0.0400297
0.176304 0.734808 -0.0406178
0.124594 0.740201 -0.0380828
0.124432 0.750188 -0.0387417
0.12431 0.760151 -0.0393239
0.124186 0.77012 -0.039911
0.124066 0.780086 -0.0404818
0.123957 0.790074 -0.0410583
0.145135 0.740021 -0.03982
0.16584 0.739869 -0.0407542
0.185985 0.73977 -0.0430051
0.134784 0.745097 -0.0393981
0.155411 0.744918 -0.0407182
0.176197 0.744774 -0.0412923
0.134627 0.755063 -0.0400606
0.134516 0.765027 -0.0406698
0.134414 0.775002 -0.0412674
0.13431 0.784989 -0.0418673
0.144998 0.749999 -0.0405185
0.16573 0.749839 -0.0414598
0.185872 0.749745 -0.0437284
0.155303 0.754892 -0.041394
0.176087 0.754746 -0.0420164
0.144899 0.759959 -0.0411522
0.165655 0.759799 -0.0421079
0.185789 0.759719 -0.0443995
0.155218 0.76486 -0.0420436
0.176022 0.764711 -0.0426752
0.144801 0.769931 -0.0417913
0.144709 0.779912 -0.0424059
0.144619 0.789899 -0.0430324
0.165582 0.769769 -0.0427654
0.185709 0.769701 -0.0450757
0.155138 0.774834 -0.0426895
0.175962 0.774683 -0.0433368
0.185637 0.779686 -0.0457573
0.155054 0.784822 -0.0433363
0.165514 0.779752 -0.0434252
0.175902 0.784671 -0.0440136
0.165445 0.789741 -0.0440952
0.185563 0.789694 -0.0464453
0.115283 0.72519 -0.0343187
0.0945744 0.795266 -0.0340671
0.104396 0.800151 -0.0366256
0.104263 0.81014 -0.0371821
0.104112 0.820111 -0.0378028
0.0942184 0.825217 -0.0356732
0.10397 0.830091 -0.0384194
0.103843 0.840062 -0.0390796
0.103726 0.850014 -0.0397278
0.0938054 0.855098 -0.0375021
0.0936523 0.865103 -0.0381289
0.103602 0.859959 -0.0403898
0.103459 0.869929 -0.0410959
0.093967 0.845136 -0.0368416
0.0941156 0.835183 -0.036235
0.0840057 0.870285 -0.0354535
0.0943325 0.815231 -0.0351163
0.0841517 0.860338 -0.0348101
0.0944559 0.805251 -0.0345864
0.0842853 0.850358 -0.0342218
0.114449 0.795074 -0.0383201
0.134201 0.794977 -0.0424708
0.154967 0.794812 -0.0439782
0.175838 0.794664 -0.0446897
0.113706 0.854892 -0.042238
0.113571 0.864853 -0.0429449
0.12383 0.800062 -0.0416402
0.144514 0.799889 -0.0436592
0.165344 0.799722 -0.0447624
0.185476 0.799681 -0.0471436
0.114309 0.80505 -0.0389363
0.114152 0.815025 -0.0396094
0.114032 0.824988 -0.0402525
0.113925 0.834963 -0.0408887
0.113817 0.844918 -0.0415492
0.134078 0.804967 -0.0430821
0.154869 0.804806 -0.0446218
0.175745 0.804653 -0.0453794
0.122778 0.870059 -0.046413
0.123695 0.810061 -0.0422407
0.144379 0.809879 -0.0443211
0.165259 0.809725 -0.0454228
0.185382 0.809682 -0.0478564
0.123585 0.82006 -0.0427976
0.123428 0.830046 -0.0434668
0.123265 0.840048 -0.04419
0.123123 0.850059 -0.0448963
0.122951 0.860057 -0.0456454
0.13396 0.81497 -0.0437197
0.154755 0.814805 -0.0453156
0.175676 0.814673 -0.0460703
0.144271 0.819873 -0.0449861
0.165178 0.819737 -0.0461001
0.185282 0.819686 -0.0486148
0.133825 0.824962 -0.0443525
0.133702 0.834971 -0.0450236
0.133546 0.84497 -0.0457363
0.133422 0.854995 -0.0464633
0.133258 0.864998 -0.0472351
0.154663 0.824809 -0.0459895
0.175609 0.824685 -0.0467478
0.185196 0.829717 -0.0493484
0.14417 0.829884 -0.0456228
0.165098 0.829746 -0.0467856
0.14405 0.839893 -0.0462928
0.143934 0.849911 -0.0469953
0.14379 0.859918 -0.0477386
0.143672 0.869949 -0.0485001
0.154571 0.834826 -0.0466555
0.175541 0.834699 -0.0474456
0.165 0.839765 -0.0474875
0.185077 0.839732 -0.0501272
0.154462 0.844838 -0.0473697
0.175448 0.844715 -0.0481542
0.154335 0.854858 -0.0481042
0.154225 0.864877 -0.0488498
0.164905 0.84978 -0.0482174
0.184979 0.84976 -0.0508903
0.175373 0.854741 -0.0488954
0.164803 0.859796 -0.0489588
0.164695 0.869828 -0.0497074
0.184874 0.85979 -0.0516826
0.175271 0.864757 -0.0496456
0.184794 0.869829 -0.0524156
0.0934838 0.875077 -0.0387605
0.103331 0.879922 -0.0416747
0.0838475 0.880192 -0.0360675
0.0933935 0.885051 -0.0393109
0.0837504 0.890155 -0.0365984
0.103246 0.889915 -0.0422114
0.0933105 0.895021 -0.0398819
0.0836705 0.900117 -0.0371537
0.10317 0.899918 -0.0427847
0.0739826 0.945174 -0.0361457
0.0740072 0.935149 -0.0356287
0.0932334 0.904981 -0.0404526
0.0836106 0.910069 -0.0377151
0.1031 0.909934 -0.0433766
0.0833953 0.940025 -0.0395019
0.0834952 0.930017 -0.0389036
0.0835607 0.920036 -0.0382976
0.0931807 0.914961 -0.0410306
0.0931393 0.92496 -0.0416371
0.0930902 0.935017 -0.0422752
0.0930751 0.945121 -0.0428306
0.103055 0.919955 -0.043953
0.103024 0.929996 -0.044548
0.102986 0.940059 -0.0452049
0.0740654 0.925194 -0.0350536
0.0741066 0.915292 -0.0345222
0.0741487 0.905384 -0.0340316
0.113438 0.874813 -0.0435932
0.113341 0.884842 -0.0441458
0.113259 0.89487 -0.0447229
0.113188 0.9049 -0.0452906
0.11313 0.914945 -0.0458824
0.113093 0.924963 -0.0465092
0.113055 0.934994 -0.0471245
0.113031 0.945081 -0.0477792
0.133093 0.87499 -0.0479839
0.154109 0.874881 -0.0495684
0.175166 0.874757 -0.0504057
0.143578 0.879915 -0.0491552
0.164617 0.879812 -0.0503817
[...]
POINT_DATA 12625
VECTORS alpha float
2.56833e-06 -1.71948e-08 1.29359e-07
-9.13179e-08 1.81845e-05 -1.21018e-06
2.50442e-06 -1.65305e-08 1.24196e-07
-9.06566e-08 1.82411e-05 -1.20965e-06
2.66823e-06 -1.58927e-08 9.65899e-08
-4.61936e-08 1.70698e-05 -1.1306e-06
-7.44082e-09 1.54024e-05 -1.0236e-06
-1.91875e-08 1.35611e-05 -9.33194e-07
-2.52614e-10 8.91212e-06 -6.25789e-07
3.27386e-09 7.75298e-06 -5.45503e-07
7.04725e-09 6.71101e-06 -4.72091e-07
1.91649e-09 5.72741e-06 -3.98735e-07
1.38504e-09 4.76825e-06 -3.32923e-07
9.48424e-10 3.81512e-06 -2.67401e-07
1.48771e-09 2.86295e-06 -2.03409e-07
8.30059e-10 1.90831e-06 -1.35273e-07
3.30186e-10 9.53912e-07 -6.75445e-08
2.41328e-06 -1.56051e-08 1.17323e-07
-7.81777e-08 1.83515e-05 -1.20701e-06
-9.10882e-08 1.82982e-05 -1.21595e-06
2.60114e-06 -1.5256e-08 9.57145e-08
-4.78953e-08 1.71244e-05 -1.14107e-06
2.76283e-06 -1.3608e-08 5.61933e-08
2.85038e-06 -1.13065e-08 1.81885e-08
2.92255e-06 -1.14778e-08 3.00578e-08
-2.18564e-09 1.1802e-05 -8.17282e-07
-1.39018e-09 8.94699e-06 -6.26177e-07
3.05608e-06 -6.58171e-09 -5.77233e-09
3.13421e-06 -6.6783e-09 2.25774e-08
9.20817e-09 1.02473e-05 -7.03204e-07
3.18579e-06 -5.52407e-09 7.66069e-09
1.26481e-09 5.75098e-06 -3.99829e-07
3.22772e-06 -3.15455e-09 -2.03839e-09
3.28436e-06 -3.4078e-09 2.57237e-08
3.32256e-06 -2.77219e-09 1.18916e-08
3.35366e-06 -1.03184e-09 1.58711e-09
3.37955e-06 -2.46053e-10 1.62834e-08
3.3957e-06 4.09422e-10 2.22615e-10
3.40431e-06 1.07267e-09 -1.56737e-08
-8.78702e-09 1.54538e-05 -1.02971e-06
-2.01463e-08 1.36073e-05 -9.37167e-07
-4.44527e-09 1.18451e-05 -8.16951e-07
8.2135e-09 1.02861e-05 -7.03536e-07
3.01211e-09 7.78303e-06 -5.47074e-07
2.99038e-06 -9.29651e-09 7.51837e-09
3.2033e-06 -3.41555e-09 2.44855e-08
7.37629e-09 6.73793e-06 -4.73663e-07
1.04585e-09 4.78751e-06 -3.35058e-07
6.77116e-10 3.83064e-06 -2.69071e-07
1.4295e-09 2.87454e-06 -2.04528e-07
7.80292e-10 1.91605e-06 -1.36076e-07
3.00536e-10 9.57782e-07 -6.79722e-08
-6.93696e-14 9.8566e-11 -6.99769e-12
2.56812e-06 1.72142e-08 -1.29371e-07
-9.1279e-08 -1.81843e-05 1.20986e-06
-4.61561e-08 -1.70696e-05 1.13022e-06
2.66801e-06 1.59156e-08 -9.6597e-08
2.50434e-06 1.65522e-08 -1.24207e-07
-9.06234e-08 -1.82409e-05 1.20933e-06
5.40592e-15 1.10811e-10 -7.84629e-12
3.31625e-10 -9.53685e-07 6.75229e-08
8.3297e-10 -1.90809e-06 1.35248e-07
1.49204e-09 -2.86274e-06 2.03384e-07
9.53867e-10 -3.81494e-06 2.67376e-07
1.39153e-09 -4.76809e-06 3.329e-07
1.92386e-09 -5.72729e-06 3.98715e-07
7.06627e-09 -6.71081e-06 4.71945e-07
3.29313e-09 -7.75278e-06 5.45352e-07
-2.33699e-10 -8.91192e-06 6.25634e-07
-1.91577e-08 -1.35609e-05 9.33029e-07
-7.40996e-09 -1.54022e-05 1.02321e-06
3.40429e-06 -1.10239e-09 1.57405e-08
3.39563e-06 -4.42054e-10 -1.56396e-10
3.37944e-06 2.10648e-10 -1.6217e-08
3.35351e-06 1.00049e-09 -1.54119e-09
1.27178e-09 -5.75086e-06 3.9981e-07
3.32239e-06 2.73802e-09 -1.18459e-08
3.28417e-06 3.37105e-09 -2.5678e-08
3.22751e-06 3.12058e-09 2.10128e-09
3.18558e-06 5.52402e-09 -7.62133e-09
-1.37221e-09 -8.94677e-06 6.26026e-07
3.13401e-06 6.6729e-09 -2.25435e-08
3.05585e-06 6.57035e-09 5.84761e-09
9.25825e-09 -1.02471e-05 7.02998e-07
-2.14346e-09 -1.18018e-05 8.17092e-07
2.92233e-06 1.14639e-08 -3.0016e-08
2.85018e-06 1.12985e-08 -1.81525e-08
2.76262e-06 1.36345e-08 -5.61955e-08
-4.78637e-08 -1.71241e-05 1.14069e-06
2.60105e-06 1.52811e-08 -9.57194e-08
-9.10624e-08 -1.82979e-05 1.21563e-06
2.41324e-06 1.56275e-08 -1.1733e-07
-7.80925e-08 -1.83513e-05 1.20607e-06
3.0199e-10 -9.57577e-07 6.79525e-08
7.83218e-10 -1.91585e-06 1.36054e-07
1.43383e-09 -2.87435e-06 2.04507e-07
3.20321e-06 3.37609e-09 -2.44401e-08
6.82357e-10 -3.83047e-06 2.69047e-07
1.05204e-09 -4.78736e-06 3.35036e-07
7.39444e-09 -6.73771e-06 4.73521e-07
3.03042e-09 -7.78281e-06 5.46927e-07
8.26207e-09 -1.02859e-05 7.03337e-07
2.99016e-06 9.28711e-09 -7.46578e-09
-4.40496e-09 -1.18449e-05 8.16769e-07
-2.01189e-08 -1.36071e-05 9.37011e-07
-8.76186e-09 -1.54536e-05 1.02932e-06
2.63875e-06 -1.79123e-08 1.34327e-07
2.49621e-06 -1.58257e-08 -1.16554e-08
-7.64765e-08 1.8289e-05 -1.2155e-06
2.69347e-06 -1.84807e-08 1.38373e-07
2.54739e-06 -1.62335e-08 -1.25103e-08
-7.29304e-08 1.82232e-05 -1.22597e-06
2.76878e-06 -1.91569e-08 1.40423e-07
2.6182e-06 -1.68347e-08 -1.42381e-08
2.63372e-06 -1.63303e-08 -2.57593e-07
2.57894e-06 -1.62492e-08 -2.46786e-07
-7.29494e-08 1.81563e-05 -1.23695e-06
2.8444e-06 -1.98907e-08 1.41129e-07
2.68937e-06 -1.7506e-08 -1.66552e-08
-7.29706e-08 1.80885e-05 -1.24077e-06
2.92437e-06 -2.06678e-08 1.43675e-07
2.76425e-06 -1.80877e-08 -1.93589e-08
-1.30224e-07 1.51273e-05 -9.64306e-07
-1.22344e-07 1.51898e-05 -9.54924e-07
-7.00863e-08 1.80191e-05 -1.23081e-06
2.98561e-06 -2.12172e-08 1.40458e-07
-6.25837e-08 1.79481e-05 -1.2106e-06
2.79831e-06 -1.79771e-08 -1.41266e-07
3.05789e-06 -2.18622e-08 1.38092e-07
3.12686e-06 -2.27747e-08 1.39263e-07
-5.33116e-08 1.78003e-05 -1.17682e-06
2.9567e-06 -1.97088e-08 -3.00048e-08
-8.86579e-08 1.68665e-05 -1.10201e-06
-5.51012e-08 1.78742e-05 -1.19848e-06
2.89128e-06 -1.91362e-08 -2.70763e-08
-8.83724e-08 1.69377e-05 -1.11409e-06
2.82206e-06 -1.86352e-08 -2.17902e-08
-8.9603e-08 1.70073e-05 -1.11742e-06
2.73791e-06 -1.75917e-08 -1.3391e-07
-9.16789e-08 1.70737e-05 -1.1305e-06
2.67455e-06 -1.71919e-08 -1.26108e-07
-9.73596e-08 1.71416e-05 -1.14221e-06
-1.2231e-07 1.5253e-05 -9.69694e-07
2.61977e-06 -1.67767e-08 -1.19995e-07
-1.02545e-07 1.72085e-05 -1.15209e-06
2.55012e-06 -1.62604e-08 -1.13703e-07
-1.30035e-07 1.53199e-05 -9.70807e-07
2.52133e-06 -1.60199e-08 -2.35201e-07
-1.3273e-07 1.53835e-05 -9.75035e-07
-1.05341e-07 1.72738e-05 -1.14163e-06
2.48282e-06 -1.56404e-08 -1.0825e-07
2.46975e-06 -1.55031e-08 -2.25823e-07
-1.37425e-07 1.54453e-05 -9.87759e-07
-1.0971e-07 1.73362e-05 -1.14337e-06
2.4162e-06 -1.5134e-08 -1.03692e-07
-1.38489e-07 1.55054e-05 -9.82477e-07
2.40484e-06 -1.49324e-08 -2.16517e-07
3.01098e-06 -1.9512e-08 -6.09112e-07
2.93637e-06 -1.9096e-08 -5.87124e-07
2.86441e-06 -1.85156e-08 -5.65702e-07
2.79667e-06 -1.80572e-08 -5.45495e-07
2.68897e-06 -1.64765e-08 -2.69192e-07
2.85781e-06 -1.84874e-08 -1.47932e-07
3.19586e-06 -2.37246e-08 1.41031e-07
3.02123e-06 -2.03623e-08 -3.81146e-08
-1.07731e-07 1.31375e-05 -8.17409e-07
-1.147e-07 1.32152e-05 -8.20876e-07
-1.21246e-07 1.32923e-05 -8.22725e-07
-1.26377e-07 1.33663e-05 -8.30493e-07
-1.29024e-07 1.34356e-05 -8.37139e-07
-1.30669e-07 1.35026e-05 -8.43452e-07
-1.25472e-07 1.50596e-05 -9.90473e-07
-7.72303e-08 1.67944e-05 -1.1252e-06
-4.09315e-08 1.77236e-05 -1.19719e-06
2.74666e-06 -1.68863e-08 -2.8026e-07
2.91888e-06 -1.91589e-08 -1.54254e-07
3.26516e-06 -2.49191e-08 1.42256e-07
3.08879e-06 -2.1195e-08 -4.37108e-08
-1.28304e-07 1.49907e-05 -1.01567e-06
-7.32489e-08 1.67208e-05 -1.1464e-06
-4.22464e-08 1.76493e-05 -1.21862e-06
2.88515e-06 -1.81561e-08 -2.98756e-07
2.95649e-06 -1.90593e-08 -3.10039e-07
3.03065e-06 -1.91589e-08 -3.22958e-07
3.10588e-06 -1.92542e-08 -3.35859e-07
3.1857e-06 -1.9353e-08 -3.50598e-07
3.26711e-06 -1.9547e-08 -3.65941e-07
3.07083e-06 -2.057e-08 -1.6528e-07
3.25269e-06 -2.27418e-08 -4.81048e-08
3.44374e-06 -2.71806e-08 1.49492e-07
-1.31994e-07 1.49156e-05 -1.03462e-06
-6.98979e-08 1.6642e-05 -1.16399e-06
-3.71232e-08 1.75663e-05 -1.24694e-06
-1.23978e-07 1.48426e-05 -1.0468e-06
-1.24437e-07 1.47727e-05 -1.04613e-06
-1.28025e-07 1.47007e-05 -1.05047e-06
-1.27054e-07 1.46278e-05 -1.05534e-06
3.14725e-06 -2.15918e-08 -1.71707e-07
3.33332e-06 -2.3827e-08 -5.08609e-08
3.53266e-06 -2.89602e-08 1.54023e-07
-6.50276e-08 1.6568e-05 -1.18433e-06
-2.46137e-08 1.74893e-05 -1.26138e-06
3.22652e-06 -2.18879e-08 -1.79272e-07
3.41629e-06 -2.41417e-08 -5.44113e-08
3.62336e-06 -2.97407e-08 1.56983e-07
-6.53715e-08 1.64944e-05 -1.19055e-06
-1.78741e-08 1.74143e-05 -1.26573e-06
3.30622e-06 -2.21839e-08 -1.86721e-07
3.38955e-06 -2.23563e-08 -1.96666e-07
3.47496e-06 -2.25715e-08 -2.06664e-07
3.49951e-06 -2.44694e-08 -5.76334e-08
3.71428e-06 -3.05078e-08 1.60745e-07
-6.9676e-08 1.642e-05 -1.20101e-06
-1.60595e-08 1.73386e-05 -1.27375e-06
3.80972e-06 -3.12177e-08 1.65444e-07
-6.73451e-08 1.63439e-05 -1.20633e-06
3.58625e-06 -2.46017e-08 -6.2792e-08
-1.25393e-08 1.72623e-05 -1.27801e-06
3.67444e-06 -2.47979e-08 -6.81316e-08
3.90605e-06 -3.16204e-08 1.70803e-07
-1.32294e-07 1.35643e-05 -8.46373e-07
-9.7678e-08 1.38226e-05 -8.08975e-07
3.09143e-06 -1.99211e-08 -6.32404e-07
3.17947e-06 -2.07259e-08 -6.55983e-07
3.27733e-06 -2.09928e-08 -6.80499e-07
-7.1267e-08 1.3571e-05 -8.37604e-07
3.37797e-06 -2.12909e-08 -7.07773e-07
3.49287e-06 -2.06176e-08 -7.42362e-07
3.60809e-06 -1.90406e-08 -7.80578e-07
-6.78989e-08 1.32901e-05 -8.47331e-07
-6.16947e-08 1.31812e-05 -8.64746e-07
3.73906e-06 -1.77562e-08 -8.24076e-07
3.92643e-06 -1.68345e-08 -8.81139e-07
-5.95296e-08 1.33875e-05 -8.47229e-07
-5.95749e-08 1.34811e-05 -8.43596e-07
3.56181e-06 -2.12658e-08 -1.12501e-06
-7.4026e-08 1.36557e-05 -8.35324e-07
3.40313e-06 -2.09355e-08 -1.06384e-06
-8.30609e-08 1.37393e-05 -8.24784e-07
3.29185e-06 -2.08126e-08 -1.01806e-06
-1.04756e-07 1.30584e-05 -8.19466e-07
-1.32443e-07 1.45535e-05 -1.06567e-06
-7.123e-08 1.62657e-05 -1.21623e-06
-1.68689e-08 1.71843e-05 -1.29034e-06
-8.65916e-08 1.25583e-05 -8.74358e-07
-8.34725e-08 1.24599e-05 -8.661e-07
3.355e-06 -1.94326e-08 -3.81488e-07
3.56708e-06 -2.24403e-08 -2.16725e-07
3.77036e-06 -2.46625e-08 -7.23914e-08
4.00874e-06 -3.17047e-08 1.76045e-07
-9.38184e-08 1.2977e-05 -8.31744e-07
-8.46131e-08 1.28954e-05 -8.38661e-07
-7.94288e-08 1.2816e-05 -8.51387e-07
-8.12879e-08 1.27335e-05 -8.63892e-07
-8.03332e-08 1.26489e-05 -8.71502e-07
-1.33353e-07 1.44777e-05 -1.07774e-06
-6.95765e-08 1.61861e-05 -1.22859e-06
-4.31916e-09 1.71026e-05 -1.3001e-06
4.32425e-06 -2.01116e-08 -5.29353e-07
3.45161e-06 -1.89015e-08 -3.97204e-07
3.67012e-06 -2.18259e-08 -2.25271e-07
3.87491e-06 -2.41362e-08 -7.66013e-08
4.12119e-06 -3.13513e-08 1.81995e-07
3.55731e-06 -1.83011e-08 -4.15823e-07
3.67165e-06 -1.8011e-08 -4.32511e-07
3.80572e-06 -1.80668e-08 -4.51035e-07
3.9418e-06 -1.81298e-08 -4.71738e-07
4.09994e-06 -1.86816e-08 -4.95233e-07
-1.25127e-07 1.44019e-05 -1.07284e-06
-4.69327e-08 1.61036e-05 -1.21772e-06
7.43786e-09 1.70215e-05 -1.28834e-06
3.78351e-06 -2.11972e-08 -2.3522e-07
3.99242e-06 -2.33279e-08 -7.99047e-08
4.24774e-06 -3.06124e-08 1.89392e-07
-1.16414e-07 1.43241e-05 -1.0687e-06
-1.06829e-07 1.42392e-05 -1.07615e-06
-8.90926e-08 1.41469e-05 -1.0766e-06
-8.99631e-08 1.40484e-05 -1.07714e-06
-7.41977e-08 1.39406e-05 -1.07315e-06
-4.43841e-08 1.60224e-05 -1.2114e-06
1.45562e-08 1.69385e-05 -1.2791e-06
4.38432e-06 -3.05101e-08 1.96893e-07
3.90237e-06 -2.04707e-08 -2.47821e-07
4.11833e-06 -2.28569e-08 -8.4201e-08
4.04566e-06 -2.05403e-08 -2.62301e-07
4.19521e-06 -2.07231e-08 -2.75231e-07
4.37117e-06 -2.14153e-08 -2.89632e-07
4.62046e-06 -2.3505e-08 -3.11547e-07
-4.84379e-08 1.59406e-05 -1.19778e-06
1.73433e-08 1.68534e-05 -1.27326e-06
4.27077e-06 -2.26578e-08 -8.99143e-08
4.55473e-06 -3.03683e-08 2.11142e-07
-5.20907e-08 1.585e-05 -1.19421e-06
2.47087e-08 1.67651e-05 -1.26153e-06
-4.14985e-08 1.57507e-05 -1.20045e-06
-3.41753e-08 1.56422e-05 -1.20393e-06
4.43196e-06 -2.28611e-08 -9.60868e-08
4.73343e-06 -3.04718e-08 2.20999e-07
1.25927e-08 1.66692e-05 -1.2719e-06
4.62222e-06 -2.39952e-08 -1.03784e-07
4.8952e-06 -2.60172e-08 -1.15572e-07
4.94696e-06 -3.12613e-08 2.3203e-07
8.52443e-10 1.65681e-05 -1.27301e-06
5.25029e-06 -3.27067e-08 2.36771e-07
-5.97666e-08 1.30602e-05 -8.7777e-07
4.07234e-06 -1.5558e-08 -9.2525e-07
3.68579e-06 -1.94425e-08 -1.17084e-06
-5.27422e-08 1.29363e-05 -8.79959e-07
3.78468e-06 -1.55571e-08 -1.21608e-06
4.19214e-06 -1.2046e-08 -9.64008e-07
-4.6982e-08 1.2809e-05 -8.80632e-07
3.88483e-06 -1.19108e-08 -1.26252e-06
4.31417e-06 -8.25317e-09 -1.0044e-06
-4.35858e-08 1.80697e-05 -1.07642e-06
-6.11547e-08 1.81711e-05 -1.11417e-06
-4.22025e-08 1.26825e-05 -8.73788e-07
3.96667e-06 -8.17866e-09 -1.30406e-06
4.41232e-06 -4.38085e-09 -1.03968e-06
4.05727e-06 3.77739e-10 -1.38298e-06
4.05406e-06 -3.2469e-09 -1.36558e-06
4.02999e-06 -5.57845e-09 -1.34114e-06
-3.12838e-08 1.25484e-05 -8.6001e-07
-1.97814e-08 1.24171e-05 -8.3881e-07
-1.42248e-08 1.22922e-05 -8.12624e-07
-6.86494e-09 1.2186e-05 -7.87468e-07
4.48529e-06 3.53183e-10 -1.06704e-06
4.50397e-06 4.49942e-09 -1.08324e-06
4.49144e-06 6.1534e-09 -1.09351e-06
-7.41333e-08 1.82948e-05 -1.1436e-06
-8.33677e-08 1.84314e-05 -1.14246e-06
-9.01886e-08 1.8574e-05 -1.1228e-06
-7.28187e-08 1.23468e-05 -8.618e-07
-6.17733e-08 1.22237e-05 -8.74447e-07
-5.40005e-08 1.20931e-05 -8.83752e-07
-3.87788e-08 1.19568e-05 -8.87285e-07
-2.47342e-08 1.18156e-05 -8.81327e-07
-1.13473e-08 1.1666e-05 -8.66392e-07
1.42981e-08 1.15184e-05 -8.331e-07
2.06942e-08 1.13876e-05 -8.01017e-07
-5.30057e-08 1.38219e-05 -1.07376e-06
-1.99038e-08 1.55223e-05 -1.19938e-06
2.40191e-09 1.64492e-05 -1.29087e-06
4.82438e-06 -2.0703e-08 -3.29779e-07
5.1267e-06 -2.42629e-08 -1.21084e-07
5.51803e-06 -3.13932e-08 2.52459e-07
4.50242e-06 -1.70506e-08 -5.56541e-07
4.65463e-06 -1.3147e-08 -5.75533e-07
4.80964e-06 -9.71032e-09 -5.96405e-07
4.93577e-06 -5.99239e-09 -6.15633e-07
5.03245e-06 -2.09781e-09 -6.27712e-07
5.05461e-06 1.41491e-09 -6.36886e-07
5.03104e-06 4.6757e-09 -6.42787e-07
-5.1747e-08 1.37056e-05 -1.07715e-06
-1.57914e-08 1.54032e-05 -1.20914e-06
1.33969e-08 1.63309e-05 -1.30277e-06
4.99746e-06 -1.55353e-08 -3.39035e-07
5.32304e-06 -1.86749e-08 -1.22871e-07
5.74698e-06 -2.74192e-08 2.65974e-07
-5.56417e-08 1.35834e-05 -1.08568e-06
-1.78748e-08 1.52781e-05 -1.22539e-06
1.82304e-08 1.621e-05 -1.31252e-06
-5.13296e-08 1.34437e-05 -1.09764e-06
-4.68234e-08 1.32984e-05 -1.09213e-06
-3.77018e-08 1.31423e-05 -1.08279e-06
-1.76048e-08 1.29815e-05 -1.05915e-06
1.36272e-09 1.28348e-05 -1.03073e-06
5.18053e-06 -1.10861e-08 -3.49878e-07
5.53701e-06 -1.47789e-08 -1.24164e-07
6.00136e-06 -2.43275e-08 2.80224e-07
5.33229e-06 -7.89755e-09 -3.61583e-07
5.44554e-06 -4.87988e-09 -3.70826e-07
5.47332e-06 -1.30826e-09 -3.79783e-07
5.44389e-06 7.93277e-10 -3.86561e-07
-1.81595e-08 1.51457e-05 -1.23031e-06
2.16065e-08 1.60741e-05 -1.32998e-06
5.71881e-06 -1.10803e-08 -1.26675e-07
6.2285e-06 -2.25546e-08 2.99694e-07
-1.97788e-08 1.49973e-05 -1.2345e-06
2.01513e-08 1.59243e-05 -1.33937e-06
-1.24489e-08 1.4831e-05 -1.23366e-06
7.49739e-09 1.46554e-05 -1.21376e-06
2.46346e-08 1.44889e-05 -1.18878e-06
5.8585e-06 -6.63489e-09 -1.27883e-07
6.40619e-06 -1.87565e-08 3.06169e-07
2.04384e-08 1.57635e-05 -1.32991e-06
5.90281e-06 -4.98978e-09 -1.32978e-07
5.87676e-06 -4.23038e-09 -1.40937e-07
6.48182e-06 -1.65963e-08 3.06061e-07
3.13237e-08 1.55868e-05 -1.30663e-06
4.77115e-08 1.54054e-05 -1.28287e-06
6.47238e-06 -1.63637e-08 2.93402e-07
2.74264e-06 -1.67525e-08 9.92149e-08
2.83993e-06 -1.41712e-08 5.66211e-08
2.92927e-06 -1.16326e-08 1.75303e-08
-8.5181e-08 1.81226e-05 -1.21277e-06
-4.09574e-08 1.70123e-05 -1.1271e-06
-3.97029e-09 1.53478e-05 -1.02068e-06
-1.54879e-08 1.35113e-05 -9.32486e-07
2.80172e-06 -1.75031e-08 9.95862e-08
2.90087e-06 -1.47658e-08 5.63418e-08
2.99178e-06 -1.20613e-08 1.66064e-08
-8.06272e-08 1.80613e-05 -1.21109e-06
-3.4649e-08 1.69522e-05 -1.12675e-06
-1.27612e-08 1.34605e-05 -9.32257e-07
-1.05472e-09 1.52903e-05 -1.01879e-06
-7.56511e-08 1.79965e-05 -1.21504e-06
-7.05553e-08 1.79305e-05 -1.216e-06
-6.64524e-08 1.78634e-05 -1.21499e-06
-6.0385e-08 1.77932e-05 -1.21418e-06
-5.88154e-08 1.77234e-05 -1.21624e-06
-6.26785e-08 1.76513e-05 -1.22617e-06
2.88203e-06 -1.82988e-08 9.99992e-08
2.98437e-06 -1.55548e-08 5.56363e-08
3.07819e-06 -1.27796e-08 1.46046e-08
-3.04513e-08 1.68926e-05 -1.13355e-06
9.21875e-10 1.52345e-05 -1.02229e-06
-7.44383e-09 1.34085e-05 -9.34535e-07
2.96207e-06 -1.905e-08 1.01137e-07
3.06785e-06 -1.64407e-08 5.5598e-08
3.16396e-06 -1.33653e-08 1.23557e-08
-2.58879e-08 1.68323e-05 -1.14094e-06
3.21918e-09 1.51779e-05 -1.02521e-06
-4.66318e-09 1.33561e-05 -9.34556e-07
3.04642e-06 -1.97084e-08 1.0189e-07
3.11072e-06 -2.0328e-08 1.031e-07
3.18589e-06 -2.08923e-08 1.0279e-07
3.25706e-06 -2.16242e-08 1.0543e-07
3.15694e-06 -1.72506e-08 5.43396e-08
3.25556e-06 -1.4009e-08 1.1034e-08
-2.10688e-08 1.67706e-05 -1.14567e-06
7.324e-09 1.51217e-05 -1.03101e-06
-1.81139e-09 1.33032e-05 -9.35644e-07
3.22714e-06 -1.79649e-08 5.2389e-08
3.32813e-06 -1.46997e-08 1.23422e-08
-1.3835e-08 1.6706e-05 -1.14931e-06
1.27544e-09 1.32501e-05 -9.37378e-07
1.38905e-08 1.50626e-05 -1.03724e-06
-8.4793e-09 1.66392e-05 -1.15222e-06
-6.14575e-09 1.65702e-05 -1.1584e-06
3.30803e-06 -1.88202e-08 4.97895e-08
3.4106e-06 -1.54744e-08 1.41243e-08
1.86948e-08 1.50041e-05 -1.04192e-06
6.84583e-09 1.31938e-05 -9.37576e-07
3.38481e-06 -1.97874e-08 5.11862e-08
3.48922e-06 -1.6301e-08 1.60865e-08
2.32519e-08 1.49436e-05 -1.0424e-06
9.34421e-09 1.31381e-05 -9.39073e-07
3.00226e-06 -1.18304e-08 3.13634e-08
3.21886e-06 -6.67311e-09 2.41548e-08
3.07197e-06 -9.68136e-09 8.72635e-09
3.1386e-06 -6.88727e-09 -5.3211e-09
1.88605e-09 8.87578e-06 -6.2482e-07
4.75005e-09 7.7206e-06 -5.45161e-07
3.29335e-10 1.17571e-05 -8.1627e-07
9.96919e-09 1.02068e-05 -7.03522e-07
3.06553e-06 -1.22423e-08 3.22558e-08
3.15195e-06 -1.26378e-08 3.38182e-08
3.23877e-06 -1.30747e-08 3.52179e-08
3.3313e-06 -1.34892e-08 3.70011e-08
3.4043e-06 -1.3795e-08 3.75247e-08
3.48774e-06 -1.4067e-08 3.76172e-08
3.56721e-06 -1.43677e-08 3.82206e-08
3.28658e-06 -6.6807e-09 2.54357e-08
3.13731e-06 -1.00891e-08 9.27554e-09
3.20491e-06 -7.07935e-09 -4.84086e-09
4.07882e-09 8.83864e-06 -6.2459e-07
2.97054e-09 1.17113e-05 -8.145e-07
1.10007e-08 1.01655e-05 -7.04499e-07
6.93236e-09 7.6865e-06 -5.46197e-07
3.22622e-06 -1.06292e-08 9.15376e-09
3.29493e-06 -7.40305e-09 -5.1325e-09
3.3779e-06 -6.77688e-09 2.59306e-08
7.09455e-09 8.80202e-06 -6.23954e-07
5.80234e-09 1.1666e-05 -8.1511e-07
1.24764e-08 1.01248e-05 -7.08724e-07
9.07284e-09 7.65391e-06 -5.45329e-07
3.38649e-06 -7.72726e-09 -5.28564e-09
3.47091e-06 -6.81568e-09 2.63618e-08
3.31568e-06 -1.125e-08 8.99938e-09
7.50975e-09 1.16189e-05 -8.15739e-07
1.04416e-08 1.15698e-05 -8.18507e-07
1.20738e-08 1.15219e-05 -8.21238e-07
1.44348e-08 1.14727e-05 -8.22199e-07
1.68823e-08 1.14223e-05 -8.22803e-07
1.01629e-08 8.76286e-06 -6.23412e-07
1.0362e-08 7.62011e-06 -5.43682e-07
1.49322e-08 1.00813e-05 -7.11733e-07
3.5699e-06 -6.82788e-09 2.65414e-08
3.41155e-06 -1.1912e-08 8.52207e-09
3.48358e-06 -8.02737e-09 -6.18966e-09
1.2205e-08 8.72446e-06 -6.22604e-07
1.15244e-08 7.58602e-06 -5.42851e-07
1.63771e-08 1.00388e-05 -7.13214e-07
3.64895e-06 -6.72451e-09 2.6351e-08
3.4877e-06 -1.24086e-08 7.4384e-09
3.56124e-06 -8.27354e-09 -7.24042e-09
1.39479e-08 8.68595e-06 -6.22313e-07
1.76644e-08 9.99596e-06 -7.15147e-07
1.32183e-08 7.55078e-06 -5.43547e-07
3.57317e-06 -1.26248e-08 7.66443e-09
3.65455e-06 -1.27871e-08 8.63068e-09
3.64931e-06 -8.71761e-09 -8.66602e-09
3.7379e-06 -6.72517e-09 2.57951e-08
1.97612e-08 9.95206e-06 -7.14815e-07
1.71568e-08 8.64533e-06 -6.22332e-07
1.44305e-08 7.51593e-06 -5.42233e-07
3.73382e-06 -9.13256e-09 -1.08039e-08
3.82463e-06 -6.67973e-09 2.52806e-08
1.8546e-08 8.60509e-06 -6.23845e-07
1.53089e-08 7.48033e-06 -5.43e-07
2.42543e-08 9.90553e-06 -7.13687e-07
3.45865e-06 -2.04825e-08 5.23984e-08
3.56833e-06 -1.7249e-08 1.75728e-08
3.32802e-06 -2.23747e-08 1.08177e-07
-6.01668e-08 1.75773e-05 -1.22752e-06
1.14687e-09 1.64989e-05 -1.15801e-06
3.2129e-08 1.48817e-05 -1.03967e-06
1.6463e-08 1.30816e-05 -9.37425e-07
-5.90503e-08 1.75014e-05 -1.23688e-06
-5.32741e-08 1.7421e-05 -1.24923e-06
-3.95235e-08 1.73437e-05 -1.25887e-06
-3.25037e-08 1.72671e-05 -1.25927e-06
-2.86669e-08 1.71902e-05 -1.26046e-06
-2.11699e-08 1.71132e-05 -1.25659e-06
3.39863e-06 -2.33423e-08 1.10128e-07
3.53012e-06 -2.12457e-08 5.4911e-08
3.64597e-06 -1.82626e-08 1.77969e-08
2.85453e-09 1.64256e-05 -1.16248e-06
3.61477e-08 1.48165e-05 -1.04183e-06
1.81453e-08 1.30224e-05 -9.44847e-07
3.58347e-06 -2.53343e-08 1.16851e-07
3.72038e-06 -2.29681e-08 5.97405e-08
3.84625e-06 -2.00468e-08 1.50008e-08
3.53104e-09 1.63484e-05 -1.16585e-06
4.11892e-08 1.47435e-05 -1.04325e-06
1.9534e-08 1.29607e-05 -9.5075e-07