# vtk DataFile Version 3.0
vtk output
ASCII
DATASET POLYDATA
POINTS 2020 float
0.159986 0.105135 -0.00570952
0.17999 0.105122 -0.00583472
0.199995 0.105106 -0.00590498
0.219999 0.105086 -0.0059374
0.240003 0.105061 -0.0059433
0.119977 0.104973 -0.00549286
0.139982 0.105152 -0.00550822
0.169992 0.100113 -0.00547885
0.189996 0.100088 -0.00557269
0.21 0.100058 -0.00562271
0.230004 0.100025 -0.00564278
0.0999757 0.105009 -0.00507505
0.119987 0.0949601 -0.00497802
0.109982 0.0999857 -0.00505376
0.159994 0.0951071 -0.00515526
0.179998 0.0950679 -0.00529606
0.129986 0.100159 -0.00510295
0.149989 0.100129 -0.00536909
0.200001 0.0950741 -0.00530081
0.220004 0.0950327 -0.00534316
0.240008 0.0949829 -0.00536945
0.0899818 0.100041 -0.00456932
0.139992 0.0951456 -0.00497212
0.149997 0.0901181 -0.00477358
0.17 0.0900737 -0.0049503
0.190002 0.0900939 -0.0049549
0.210005 0.090055 -0.00500726
0.230008 0.0900055 -0.00504859
0.249997 0.100164 -0.00562394
0.0799788 0.105064 -0.00452035
0.0999881 0.0950096 -0.00461576
0.119999 0.0849535 -0.00447013
0.109994 0.0899814 -0.00456295
0.160002 0.0850965 -0.00460067
0.180005 0.0850389 -0.00475489
0.129995 0.090166 -0.00457247
0.200005 0.0850803 -0.00471508
0.220008 0.0850319 -0.00474752
0.240011 0.0849694 -0.00478883
0.259986 0.105163 -0.00593985
0.279998 0.105149 -0.00597716
0.300007 0.105133 -0.00600629
0.320014 0.105114 -0.00602455
0.340017 0.105092 -0.00602971
0.360018 0.105068 -0.00602061
0.269998 0.100149 -0.00568036
0.290006 0.100126 -0.00572017
0.310011 0.100098 -0.00575592
0.320016 0.0951033 -0.00540856
0.340017 0.0950803 -0.00541573
0.360017 0.09505 -0.00541577
0.330016 0.100098 -0.00575182
0.350017 0.100069 -0.00575556
0.370016 0.100034 -0.00575144
0.26 0.0951595 -0.00537827
0.280006 0.0951344 -0.00542154
0.30001 0.095101 -0.00546757
0.290009 0.0901101 -0.00509302
0.310012 0.0900758 -0.00513651
0.330017 0.0900944 -0.00511907
0.350016 0.0900664 -0.00512889
0.370013 0.0900276 -0.00513952
0.28001 0.0851321 -0.00477306
0.300011 0.085097 -0.00481918
0.250005 0.0901745 -0.00505715
0.270008 0.0901506 -0.00509117
0.320018 0.0851177 -0.00481488
0.340016 0.085093 -0.00482666
0.360012 0.0850535 -0.00484465
0.260017 0.0851655 -0.00476824
0.290012 0.0801164 -0.00447872
0.310008 0.0800758 -0.004536
0.330016 0.0801222 -0.00450458
0.35001 0.0800914 -0.0045273
0.370004 0.0800423 -0.00456449
0.379994 0.105068 -0.00604738
0.399996 0.105083 -0.00608774
0.419998 0.105093 -0.00611416
0.439999 0.105098 -0.00612273
0.459999 0.105099 -0.00611138
0.479998 0.105095 -0.00607988
0.389996 0.100069 -0.00572686
0.409998 0.10008 -0.00575839
0.429999 0.100087 -0.00577492
0.449999 0.10009 -0.0057735
0.469999 0.100088 -0.00575298
0.489998 0.100082 -0.00571418
0.379998 0.095027 -0.00543092
0.4 0.0950416 -0.00546405
0.42 0.0950508 -0.00548553
0.44 0.0950544 -0.00549048
0.459999 0.0950523 -0.00547657
0.479997 0.0950445 -0.00544407
0.390002 0.0900043 -0.00514815
0.410002 0.090016 -0.00517288
0.430001 0.0900222 -0.00518437
0.45 0.0900228 -0.00517871
0.469997 0.0900179 -0.00515521
0.489995 0.0900075 -0.00511637
0.380009 0.0850104 -0.0048717
0.400006 0.0850294 -0.00488509
0.420003 0.0850379 -0.00489648
0.440002 0.085034 -0.00490584
0.459998 0.0850345 -0.00488776
0.479994 0.0850237 -0.00486096
0.390012 0.0800423 -0.00458806
0.410007 0.0800554 -0.00458967
0.430002 0.0800545 -0.0045951
0.450001 0.0800498 -0.00459899
0.469996 0.0800469 -0.00457924
0.489991 0.0800286 -0.00456168
0.500003 0.105087 -0.00603231
0.520002 0.105096 -0.00608147
0.540001 0.105099 -0.00611238
0.560001 0.105098 -0.0061233
0.580002 0.105093 -0.00611443
0.600003 0.105083 -0.00608781
0.620006 0.105068 -0.00604733
0.510002 0.100081 -0.0057142
0.530001 0.100088 -0.005753
0.550001 0.10009 -0.00577349
0.570001 0.100087 -0.00577486
0.590002 0.10008 -0.00575826
0.610004 0.100069 -0.00572665
0.500005 0.0950309 -0.0053959
0.520003 0.0950444 -0.00544408
0.540001 0.0950522 -0.00547656
0.56 0.0950543 -0.00549045
0.58 0.0950507 -0.00548545
0.6 0.0950415 -0.0054639
0.620002 0.0950268 -0.00543068
0.510005 0.0900353 -0.00516526
0.530002 0.0900472 -0.00519479
0.55 0.0900491 -0.0052169
0.57 0.0900496 -0.00521538
0.589999 0.0900484 -0.00520624
0.609999 0.090038 -0.00519165
0.500009 0.0850273 -0.00488368
0.520005 0.0850531 -0.00490211
0.540001 0.0850631 -0.00492336
0.559997 0.0850573 -0.00494434
0.579998 0.0850683 -0.0049251
0.599995 0.085063 -0.00491987
0.619992 0.0850434 -0.00492004
0.510008 0.0800571 -0.00460622
0.530003 0.0800767 -0.00461433
0.549998 0.0800765 -0.00463259
0.569999 0.0800817 -0.00462127
0.589994 0.0800878 -0.00461768
0.609989 0.0800762 -0.00462581
0.639982 0.105064 -0.00601852
0.659983 0.105092 -0.00602859
0.679986 0.105116 -0.00602389
0.699993 0.105136 -0.00600575
0.720002 0.105153 -0.00597651
0.740013 0.105167 -0.00593897
0.639983 0.0950471 -0.00541499
0.659983 0.0950789 -0.00541549
0.679984 0.0951031 -0.00540869
0.629984 0.10003 -0.00575027
0.649983 0.100067 -0.00575508
0.669984 0.100097 -0.00575183
0.689988 0.100099 -0.00575626
0.709994 0.100127 -0.00572069
0.730002 0.10015 -0.00568093
0.629987 0.0900275 -0.00513995
0.649984 0.0900663 -0.00512912
0.669983 0.0900943 -0.00511916
0.69999 0.095101 -0.00546702
0.719994 0.0951344 -0.00542129
0.74 0.0951595 -0.00537823
0.689988 0.0900758 -0.00513582
0.709991 0.0901102 -0.00509269
0.639988 0.0850534 -0.00484492
0.659984 0.0850929 -0.00482676
0.679982 0.0851176 -0.00481491
0.699989 0.085097 -0.00481873
0.71999 0.0851322 -0.0047729
0.729992 0.0901507 -0.00509106
0.749995 0.0901746 -0.00505716
0.629996 0.0800422 -0.0045648
0.64999 0.0800913 -0.00452742
0.669984 0.0801221 -0.0045046
0.739983 0.0851656 -0.00476822
0.689992 0.0800758 -0.00453542
0.709988 0.0801164 -0.00447849
0.750003 0.100165 -0.00562446
0.759997 0.105061 -0.00594331
0.780001 0.105086 -0.0059374
0.800005 0.105106 -0.00590498
0.82001 0.105122 -0.00583473
0.840014 0.105135 -0.00570952
0.860018 0.105152 -0.00550822
0.769996 0.100025 -0.00564278
0.79 0.100058 -0.00562271
0.810004 0.100088 -0.00557269
0.830008 0.100113 -0.00547885
0.880022 0.104974 -0.00549293
0.759992 0.0949828 -0.00536864
0.779996 0.0950326 -0.00534276
0.799999 0.0950741 -0.00530068
0.820002 0.0950679 -0.00529607
0.840006 0.095107 -0.00515527
0.850011 0.100129 -0.00536911
0.870014 0.100159 -0.00510297
0.900024 0.10501 -0.00507512
0.880012 0.0949608 -0.00497824
0.890018 0.0999862 -0.0050539
0.769992 0.0900055 -0.00504804
0.789995 0.090055 -0.00500704
0.809998 0.0900939 -0.00495483
0.860008 0.0951456 -0.00497214
0.83 0.0900737 -0.00495032
0.850003 0.0901181 -0.00477359
0.910018 0.100041 -0.00456925
0.759989 0.0849694 -0.00478812
0.779992 0.0850319 -0.0047472
0.799995 0.0850802 -0.00471497
0.819995 0.0850389 -0.00475491
0.839998 0.0850964 -0.00460069
0.870005 0.090166 -0.00457249
0.920021 0.105064 -0.0045203
0.900012 0.0950098 -0.00461579
0.880001 0.0849541 -0.0044703
0.890006 0.0899818 -0.00456304
0.109969 0.110033 -0.00546904
0.0899696 0.110051 -0.00497451
0.119963 0.115068 -0.00584189
0.0999625 0.115053 -0.00544607
0.0799655 0.115073 -0.00484817
0.109956 0.120085 -0.00584427
0.0899576 0.120073 -0.00534377
0.0999522 0.125127 -0.00567255
0.119952 0.125138 -0.00614792
0.0799547 0.12509 -0.00515552
0.109946 0.13015 -0.00610089
0.0899489 0.130131 -0.00552417
0.11994 0.135178 -0.00647599
0.099942 0.135151 -0.00596179
0.0799479 0.135132 -0.00528161
0.109936 0.14018 -0.00634917
0.0899402 0.140153 -0.00573531
0.119932 0.145208 -0.00666309
0.0999338 0.145177 -0.00611996
0.0799411 0.145148 -0.00540684
0.109929 0.150208 -0.00644425
0.0899336 0.150173 -0.00580482
0.119927 0.155234 -0.00667562
0.099929 0.155199 -0.00611201
0.0799369 0.155164 -0.00537768
0.109926 0.160224 -0.00635748
0.0899312 0.160188 -0.00569939
0.0999288 0.165211 -0.00591484
0.119926 0.165247 -0.00648828
0.0799373 0.165174 -0.00517149
0.0899341 0.170195 -0.00540111
0.109928 0.170232 -0.00605833
0.0999348 0.175213 -0.00549764
0.119931 0.17525 -0.00606285
0.0799436 0.175176 -0.0047689
0.0899434 0.180192 -0.00488062
0.109937 0.180229 -0.00551599
0.0999475 0.185201 -0.00483764
0.119943 0.185237 -0.00537291
0.109953 0.190208 -0.00470997
0.0699458 0.170158 -0.0045821
0.0699428 0.160153 -0.0048785
0.069945 0.150143 -0.00499638
0.119964 0.195199 -0.00440345
0.0699491 0.140133 -0.00495538
0.0599528 0.155135 -0.00448326
0.0599542 0.165142 -0.00427511
0.0699544 0.130106 -0.00488341
0.0599561 0.145118 -0.0045425
0.0599615 0.135083 -0.00451259
0.069963 0.120089 -0.00467272
0.0599721 0.125036 -0.00440335
0.0799622 0.185159 -0.00415892
0.0699751 0.110094 -0.00435986
0.169984 0.110152 -0.00606923
0.129969 0.110155 -0.00565747
0.149976 0.110148 -0.00592028
0.179984 0.11519 -0.00638565
0.139965 0.115157 -0.00607533
0.159974 0.115163 -0.00628693
0.129951 0.120153 -0.00618614
0.149963 0.120175 -0.0064445
0.169975 0.120194 -0.00660729
0.13995 0.125173 -0.00655682
0.159964 0.125195 -0.00677371
0.179977 0.125215 -0.00690609
0.149952 0.130192 -0.00688922
0.169966 0.130216 -0.00706895
0.129937 0.130171 -0.00661017
0.139939 0.135187 -0.00693229
0.159955 0.135211 -0.00716824
0.17997 0.135234 -0.0073188
0.149943 0.140208 -0.00720652
0.169959 0.140232 -0.00740662
0.129927 0.140183 -0.00690718
0.159948 0.145234 -0.00741733
0.179963 0.145259 -0.00759218
0.139933 0.145206 -0.00715191
0.169953 0.150264 -0.00758645
0.129925 0.1502 -0.00701918
0.149939 0.150232 -0.00735614
0.139931 0.155229 -0.00718019
0.159945 0.15526 -0.00747088
0.179958 0.155287 -0.00766812
0.129925 0.16022 -0.00693414
0.149938 0.160254 -0.00728995
0.16995 0.160283 -0.00753934
0.139933 0.165243 -0.00698774
0.159945 0.165274 -0.00729098
0.179955 0.165301 -0.00750133
0.189984 0.11015 -0.00619996
0.209996 0.110146 -0.00622358
0.230004 0.11014 -0.00622133
0.249998 0.110173 -0.00617893
0.199986 0.115197 -0.00650863
0.220002 0.115207 -0.00649324
0.240008 0.115216 -0.00646179
0.189967 0.120205 -0.00680013
0.209991 0.120218 -0.00679287
0.230004 0.120232 -0.00676932
0.219996 0.125241 -0.00704934
0.240005 0.12526 -0.0070241
0.199975 0.12522 -0.00706841
0.189953 0.130226 -0.00731585
[...]
POINT_DATA 2020
VECTORS alpha float
-2.22381e-09 2.52739e-06 -1.5278e-07
-3.66373e-09 4.7056e-06 -2.94767e-07
-4.13869e-09 6.13079e-06 -3.93687e-07
-3.87984e-09 6.72002e-06 -4.39104e-07
-3.24553e-09 6.63138e-06 -4.38681e-07
1.44919e-09 -1.43458e-06 8.0812e-08
-1.04548e-10 1.08296e-07 -6.23683e-09
1.18831e-05 -1.38522e-08 -6.50841e-08
1.5953e-05 -2.20901e-08 -4.87178e-08
1.98015e-05 -3.18733e-08 -2.73677e-08
2.32636e-05 -4.28057e-08 -5.17805e-09
3.02362e-10 -2.9737e-07 1.53345e-08
-3.7801e-11 4.55157e-08 -2.69223e-09
1.22125e-06 -4.23099e-09 -2.58086e-08
-3.2755e-09 4.54131e-06 -2.90226e-07
-4.17367e-09 6.73352e-06 -4.45176e-07
4.18558e-06 -5.85681e-09 -6.05755e-08
7.85159e-06 -1.37985e-08 -7.9847e-08
-4.28164e-09 8.0505e-06 -5.3479e-07
-3.67667e-09 8.44295e-06 -5.69096e-07
-2.828e-09 8.12257e-06 -5.52491e-07
-7.77917e-07 2.43891e-09 2.11221e-08
-1.55844e-09 1.94244e-06 -1.19089e-07
1.73668e-05 -3.52847e-08 -1.65945e-07
2.15517e-05 -5.34597e-08 -1.49582e-07
2.55739e-05 -4.37842e-08 -6.97101e-08
2.92339e-05 -6.53958e-08 -5.93237e-08
3.24223e-05 -8.96838e-08 -5.77674e-08
2.6273e-05 -1.17867e-08 -4.20776e-08
-5.73055e-09 6.08647e-06 -2.77218e-07
-5.73347e-10 7.00067e-07 -3.83262e-08
-1.09602e-09 1.86795e-06 -1.12147e-07
9.6375e-06 -4.08096e-08 -1.90969e-07
-3.50063e-09 6.62832e-06 -4.3365e-07
-3.7189e-09 8.73241e-06 -5.88676e-07
1.32943e-05 -2.60972e-08 -1.77225e-07
-3.82875e-09 9.87826e-06 -6.5977e-07
-2.86966e-09 1.00305e-05 -6.75727e-07
-1.79957e-09 9.45807e-06 -6.39022e-07
-2.3977e-09 6.11708e-06 -3.98926e-07
-1.75483e-09 5.38426e-06 -3.54038e-07
-1.22047e-09 4.60695e-06 -3.05065e-07
-8.08478e-10 3.87983e-06 -2.58411e-07
-5.0441e-10 3.24137e-06 -2.16811e-07
-2.85561e-10 2.69386e-06 -1.80598e-07
2.88251e-05 -2.94848e-08 -5.5088e-08
3.09615e-05 -3.98647e-08 -5.52048e-08
3.27536e-05 -5.10618e-08 -5.03087e-08
-5.89428e-10 4.63547e-06 -3.16792e-07
-3.6617e-10 3.88426e-06 -2.65841e-07
-2.07662e-10 3.24276e-06 -2.2165e-07
3.42654e-05 -4.26594e-08 -9.76829e-09
3.55525e-05 -5.73349e-08 3.9307e-09
3.66512e-05 -7.28362e-08 1.6721e-08
-1.70002e-09 7.38673e-06 -5.02965e-07
-1.24514e-09 6.44754e-06 -4.43533e-07
-8.79795e-10 5.49737e-06 -3.81257e-07
3.91862e-05 -6.09917e-08 -7.89312e-08
4.07072e-05 -7.78783e-08 -8.60832e-08
4.19809e-05 -4.83436e-08 -1.64662e-08
4.30658e-05 -7.24421e-08 -1.7668e-08
4.39953e-05 -9.76198e-08 -2.2968e-08
-3.53745e-10 7.36487e-06 -5.02279e-07
-1.13588e-10 6.25666e-06 -4.29823e-07
3.51162e-05 -3.45981e-08 -4.38251e-08
3.73443e-05 -5.42342e-08 -6.98308e-08
-4.12399e-11 5.27133e-06 -3.62126e-07
-2.35951e-11 4.42473e-06 -3.03876e-07
-1.67843e-11 3.70559e-06 -2.53484e-07
9.93591e-11 8.49938e-06 -5.78462e-07
4.19147e-05 -7.4173e-08 -9.80285e-08
4.30817e-05 -1.00038e-07 -1.37687e-07
4.40575e-05 -4.84562e-08 -3.13805e-08
4.48887e-05 -9.02458e-08 -6.24694e-08
4.56073e-05 -1.3346e-07 -1.00983e-07
-1.43989e-10 2.22145e-06 -1.48722e-07
-1.00908e-10 1.80363e-06 -1.21922e-07
-6.51666e-11 1.41981e-06 -9.66068e-08
-3.69609e-11 1.05522e-06 -7.20533e-08
-1.66667e-11 7.00233e-07 -4.78377e-08
-4.45263e-12 3.49351e-07 -2.38038e-08
3.75976e-05 2.49219e-08 -6.80817e-08
3.83779e-05 1.73082e-08 -4.52775e-08
3.9006e-05 9.07315e-09 -1.37845e-08
3.94805e-05 3.94805e-10 2.27401e-08
3.97987e-05 -8.54257e-09 6.02978e-08
3.99579e-05 -1.75314e-08 9.451e-08
-2.48785e-12 2.6877e-06 -1.83289e-07
-1.10139e-11 2.19275e-06 -1.51045e-07
-1.42537e-11 1.73317e-06 -1.20148e-07
-1.38736e-11 1.29216e-06 -8.9809e-08
-1.10917e-11 8.59333e-07 -5.96531e-08
-6.50598e-12 4.29301e-07 -2.96482e-08
4.48016e-05 3.15696e-08 -6.28245e-08
4.54693e-05 1.99246e-08 -4.0966e-08
4.60094e-05 7.63177e-09 -5.83579e-09
4.64189e-05 -5.1092e-09 3.54342e-08
4.66942e-05 -1.80845e-08 7.51123e-08
4.68323e-05 -3.10673e-08 1.05405e-07
2.40116e-10 3.08222e-06 -2.10866e-07
1.26046e-10 2.52389e-06 -1.74389e-07
4.48443e-11 2.00116e-06 -1.39037e-07
2.84253e-11 1.4955e-06 -1.04004e-07
-7.69967e-12 9.96209e-07 -6.90866e-08
-1.71943e-11 4.98192e-07 -3.42889e-08
4.62349e-05 4.56344e-08 8.06253e-09
4.67633e-05 1.39018e-08 -7.90105e-09
4.71945e-05 -1.87336e-08 -1.26122e-08
4.75228e-05 1.12848e-08 4.83599e-08
4.77451e-05 -2.54514e-08 4.68952e-08
4.78573e-05 -6.23669e-08 3.55473e-08
-2.23317e-16 -1.22332e-10 8.28591e-12
-4.21204e-12 -3.49587e-07 2.38217e-08
-1.60678e-11 -7.00443e-07 4.78564e-08
-3.58409e-11 -1.05539e-06 7.207e-08
-6.32915e-11 -1.41992e-06 9.66163e-08
-9.79349e-11 -1.80369e-06 1.21916e-07
-1.39407e-10 -2.22144e-06 1.48689e-07
3.99581e-05 1.75861e-08 -9.45324e-08
3.9799e-05 8.57258e-09 -6.02726e-08
3.9481e-05 -3.91342e-10 -2.26709e-08
3.90066e-05 -9.09689e-09 1.38938e-08
3.83787e-05 -1.73584e-08 4.54233e-08
3.75985e-05 -2.49965e-08 6.82616e-08
-1.21568e-15 -6.77927e-11 4.63929e-12
-6.50791e-12 -4.2943e-07 2.96585e-08
-1.10671e-11 -8.59442e-07 5.96624e-08
-1.37862e-11 -1.29224e-06 8.98156e-08
-1.40599e-11 -1.73321e-06 1.2015e-07
-1.06669e-11 -2.19274e-06 1.5104e-07
-1.94311e-12 -2.68764e-06 1.83274e-07
4.68322e-05 3.96395e-08 -7.5053e-08
4.66944e-05 1.6228e-08 -6.22376e-08
4.64194e-05 -7.05648e-09 -4.22315e-08
4.60104e-05 8.26023e-09 1.01978e-08
4.54703e-05 -1.28444e-08 2.64037e-08
4.48023e-05 -3.31108e-08 3.1991e-08
4.53117e-16 7.26664e-12 -4.97238e-13
-1.55726e-11 -4.98151e-07 3.45134e-08
-4.81785e-13 -9.9615e-07 6.95486e-08
4.52508e-11 -1.49544e-06 1.04716e-07
2.87416e-11 -2.00118e-06 1.40075e-07
1.16304e-10 -2.52386e-06 1.75821e-07
2.41107e-10 -3.08212e-06 2.12737e-07
4.78571e-05 7.08197e-08 -4.1381e-09
4.77451e-05 2.33043e-08 -3.34539e-08
4.75231e-05 -2.39391e-08 -5.50691e-08
4.71953e-05 3.54554e-08 1.83206e-08
4.67639e-05 -6.15288e-09 -6.00687e-09
4.62355e-05 -4.67018e-08 -3.90651e-08
-2.85329e-10 -2.69374e-06 1.80574e-07
-5.0369e-10 -3.2412e-06 2.16808e-07
-8.0713e-10 -3.87962e-06 2.58424e-07
-1.21834e-09 -4.60674e-06 3.05087e-07
-1.75179e-09 -5.38406e-06 3.54063e-07
-2.39369e-09 -6.11691e-06 3.98945e-07
-2.05883e-10 -3.24267e-06 2.21619e-07
-3.63946e-10 -3.88413e-06 2.65848e-07
-5.86676e-10 -4.63531e-06 3.16832e-07
3.66521e-05 7.60978e-08 -1.81736e-08
3.55534e-05 5.99435e-08 -4.97706e-09
3.42664e-05 4.46372e-08 9.07078e-09
3.27546e-05 5.24397e-08 4.98996e-08
3.09624e-05 4.06817e-08 5.50248e-08
2.8826e-05 2.97922e-08 5.50842e-08
4.39962e-05 9.77654e-08 2.3434e-08
4.30667e-05 7.2572e-08 1.80335e-08
4.19816e-05 4.84569e-08 1.6698e-08
-8.77545e-10 -5.49716e-06 3.81181e-07
-1.24231e-09 -6.4473e-06 4.43465e-07
-1.6967e-09 -7.38647e-06 5.02936e-07
4.07078e-05 7.79457e-08 8.52489e-08
3.91866e-05 6.10251e-08 7.83625e-08
-1.66551e-11 -3.70554e-06 2.53527e-07
-2.3039e-11 -4.42465e-06 3.03917e-07
-4.00897e-11 -5.27121e-06 3.62135e-07
-1.11917e-10 -6.25651e-06 4.29744e-07
-3.51647e-10 -7.36469e-06 5.02204e-07
3.73446e-05 5.42381e-08 6.95072e-08
3.51164e-05 3.4576e-08 4.37317e-08
4.56081e-05 1.33595e-07 1.01546e-07
4.48895e-05 9.03612e-08 6.28007e-08
4.40584e-05 4.85516e-08 3.14635e-08
1.01713e-10 -8.49917e-06 5.78425e-07
4.30826e-05 1.00116e-07 1.36775e-07
4.19155e-05 7.4221e-08 9.74703e-08
2.62737e-05 1.16539e-08 4.22021e-08
-3.24179e-09 -6.63106e-06 4.38659e-07
-3.87588e-09 -6.71973e-06 4.39084e-07
-4.13494e-09 -6.13053e-06 3.93672e-07
-3.66074e-09 -4.70541e-06 2.94755e-07
-2.22213e-09 -2.52726e-06 1.52772e-07
-1.04422e-10 -1.08238e-07 6.23349e-09
2.32643e-05 4.28157e-08 5.17622e-09
1.9802e-05 3.18835e-08 2.73668e-08
1.59533e-05 2.20992e-08 4.87178e-08
1.18833e-05 1.38594e-08 6.50847e-08
1.44829e-09 1.43459e-06 -8.08149e-08
-2.82504e-09 -8.12232e-06 5.52398e-07
-3.67338e-09 -8.44272e-06 5.69019e-07
-4.27847e-09 -8.05031e-06 5.34774e-07
-4.17105e-09 -6.73339e-06 4.4517e-07
-3.27364e-09 -4.54123e-06 2.90222e-07
7.85175e-06 1.38035e-08 7.98479e-08
4.18568e-06 5.8596e-09 6.05767e-08
3.02116e-10 2.97335e-07 -1.53353e-08
-3.77862e-11 -4.55242e-08 2.69315e-09
1.22134e-06 4.20346e-09 2.58252e-08
3.24224e-05 8.96802e-08 5.71214e-08
2.9234e-05 6.53916e-08 5.89695e-08
2.55739e-05 4.37806e-08 6.96074e-08
-1.5576e-09 -1.94241e-06 1.19088e-07
2.15517e-05 5.34698e-08 1.4958e-07
1.73668e-05 3.52939e-08 1.65943e-07
-7.77834e-07 -2.42532e-09 -2.11261e-08
-1.79633e-09 -9.45785e-06 6.38926e-07
-2.86645e-09 -1.00303e-05 6.75635e-07
-3.82602e-09 -9.87808e-06 6.5974e-07
-3.71719e-09 -8.73229e-06 5.88671e-07
-3.49922e-09 -6.62824e-06 4.33647e-07
1.32943e-05 2.61048e-08 1.77224e-07
-5.72551e-09 -6.08655e-06 2.7728e-07
-5.72947e-10 -7.00103e-07 3.83363e-08
-1.0953e-09 -1.86795e-06 1.12173e-07
9.63761e-06 4.05951e-08 1.911e-07
-1.04455e-05 2.01002e-08 2.28284e-07
-1.08247e-05 2.34129e-08 3.14005e-07
2.43723e-09 -2.26347e-06 1.11557e-07
5.29698e-10 -4.88129e-07 2.20605e-08
-6.71735e-09 6.56416e-06 -2.58422e-07
-2.55568e-05 2.09419e-08 5.819e-07
-2.35896e-05 3.62662e-08 7.34867e-07
-5.07528e-10 4.94116e-07 -1.71906e-08
2.13185e-09 -2.06916e-06 8.14269e-08
-8.18714e-09 8.31643e-06 -2.60184e-07
-4.41435e-05 -3.62014e-08 1.0119e-06
-3.90384e-05 -2.71604e-08 1.19816e-06
4.05644e-10 -4.36882e-07 1.19679e-08
-2.7487e-09 3.04757e-06 -7.14276e-08
-9.6537e-09 1.17243e-05 -2.21601e-07
-6.60352e-05 -7.78775e-08 1.63409e-06
-5.69639e-05 -6.21523e-08 1.86887e-06
-2.10564e-09 3.07529e-06 -3.58708e-08
-4.89025e-09 7.58491e-06 -6.5495e-08
-9.64505e-09 1.7138e-05 -9.16338e-08
-9.08606e-05 -1.4212e-07 2.366e-06
-7.69987e-05 -1.1047e-07 2.64934e-06
-2.71328e-09 8.92127e-06 6.70534e-08
-3.58616e-09 1.45138e-05 1.35663e-07
-4.25459e-09 2.4914e-05 2.7485e-07
-0.000118059 -1.99406e-07 3.18499e-06
-9.8621e-05 -1.66474e-07 3.48893e-06
6.6994e-09 2.42175e-05 7.29073e-07
3.63422e-09 1.75459e-05 5.24285e-07
1.19932e-08 3.53636e-05 1.05574e-06
-0.000121181 -2.11757e-07 4.30295e-06
-0.000146909 -2.56312e-07 4.00622e-06
3.36632e-08 3.70344e-05 1.97848e-06
2.45173e-08 2.93651e-05 1.62167e-06
4.607e-08 4.87404e-05 2.47529e-06
-0.000143938 -2.52066e-07 4.98075e-06
-0.000176565 -3.09532e-07 4.71801e-06
8.57694e-08 5.32426e-05 4.19024e-06
6.90668e-08 4.47475e-05 3.71102e-06
-0.000204056 -3.35576e-07 5.11759e-06
-9.43362e-05 -1.57361e-07 4.05106e-06
-7.76893e-05 -1.14944e-07 3.34498e-06
-6.14424e-05 -7.42296e-08 2.58753e-06
1.45589e-07 6.38314e-05 7.17476e-06
-4.61446e-05 -3.62055e-08 1.86231e-06
-3.87519e-09 4.29773e-05 5.34706e-07
2.01197e-08 5.36675e-05 1.55686e-06
-3.2246e-05 3.85203e-08 1.32181e-06
-1.54264e-08 3.47548e-05 -6.84503e-08
-1.98425e-08 2.8763e-05 -4.24009e-07
-2.00888e-05 4.82491e-08 7.92348e-07
-1.95651e-08 2.47254e-05 -6.28506e-07
1.0262e-07 6.52273e-05 4.788e-06
-9.88184e-06 2.9931e-08 3.64382e-07
-2.77391e-06 -1.73656e-10 1.48217e-08
-8.79649e-06 2.6776e-09 1.27565e-07
-6.12052e-06 3.00591e-09 5.91411e-08
-2.29825e-09 2.88326e-06 -1.61726e-07
1.01541e-09 -1.2323e-06 6.33653e-08
-7.0078e-10 8.52113e-07 -4.63925e-08
-2.59656e-05 -2.91941e-08 3.71573e-07
-2.49916e-05 -2.47258e-08 2.31731e-07
-2.30014e-05 -1.9453e-08 1.24461e-07
1.17622e-09 -1.7208e-06 7.2615e-08
1.08025e-10 -1.44186e-07 6.50671e-09
-1.25644e-09 1.57901e-06 -7.47952e-08
-4.89914e-05 -5.69754e-08 4.95898e-07
-4.91563e-05 -5.38361e-08 3.01079e-07
-4.74399e-05 -5.74751e-08 7.29753e-07
4.97965e-10 -9.43433e-07 2.79575e-08
3.89592e-11 -6.00044e-08 1.95079e-09
-8.82196e-10 1.1758e-06 -4.09641e-08
-7.81e-05 -9.4463e-08 8.65009e-07
-8.13334e-05 -8.8609e-08 5.7846e-07
-7.31081e-05 -9.27292e-08 1.19066e-06
-7.60986e-10 1.56241e-06 -2.43331e-08
-1.33422e-09 2.11827e-06 -3.75053e-08
-5.04782e-10 1.55701e-06 -2.03875e-08
-0.000119326 -1.5334e-07 1.00878e-06
-0.000102615 -1.60951e-07 1.89341e-06
-0.000112022 -1.56858e-07 1.43877e-06
-1.46143e-10 6.26528e-06 4.49612e-08
-1.15972e-09 5.22194e-06 2.82791e-08
-1.98538e-09 4.90455e-06 1.82659e-08
-0.000135401 -2.24943e-07 2.64178e-06
-0.000150226 -2.21724e-07 2.07524e-06
-0.000162663 -2.07456e-07 1.5197e-06
5.64986e-09 1.36739e-05 4.25548e-07
1.96123e-09 1.14419e-05 3.46576e-07
-6.04781e-10 1.00723e-05 2.94435e-07
8.7231e-07 -1.66267e-10 -1.34357e-09
4.50143e-06 -1.3099e-09 -5.40967e-10
7.8888e-06 -3.1318e-09 6.85044e-09
1.09134e-05 4.61438e-09 -6.13793e-09
-3.58821e-09 4.32066e-06 -2.50515e-07
-3.96927e-09 5.03235e-06 -2.98134e-07
-3.85598e-09 5.12691e-06 -3.08777e-07
-2.04153e-05 -1.27878e-08 -6.90825e-09
-1.7551e-05 -1.16308e-08 -2.16994e-08
-1.47185e-05 -1.02047e-08 -2.60714e-08
-2.89467e-09 3.61848e-06 -1.84228e-07
-3.21366e-09 3.81635e-06 -1.99493e-07
-2.19637e-09 2.89155e-06 -1.42555e-07
-4.84045e-05 -3.53285e-08 -4.08906e-08
-4.69949e-05 -3.82555e-08 -6.31825e-08
-4.53403e-05 -4.04909e-08 -6.66155e-08
-1.37816e-09 2.20133e-06 -7.99233e-08
-2.08717e-09 2.80447e-06 -1.07058e-07
-2.5818e-09 2.99284e-06 -1.19261e-07
-8.33289e-05 -6.22399e-08 -1.28764e-07
-8.42049e-05 -7.06585e-08 -1.26371e-07
-8.44988e-05 -7.82934e-08 -9.14078e-08
-1.06725e-09 2.67247e-06 -4.93548e-08
-1.78049e-09 2.98493e-06 -6.0672e-08
-2.38939e-09 3.0184e-06 -6.66601e-08
-0.0001251 -1.27411e-07 -6.58602e-08
-0.00012922 -1.42686e-07 -8.30984e-08
-0.000132372 -1.5638e-07 -5.51854e-08
-3.46276e-10 4.79013e-06 1.80317e-08
-1.50747e-09 4.62154e-06 1.01206e-08
-2.4939e-09 4.32484e-06 2.49717e-09
-0.000173283 -1.70948e-07 4.8446e-08
-0.000181739 -1.91941e-07 2.23934e-08
-0.000188808 -2.1101e-07 6.57857e-08
3.30415e-09 9.09097e-06 2.76389e-07
5.79352e-10 8.2375e-06 2.41192e-07
-1.6181e-09 7.41198e-06 2.07269e-07
-0.000194806 -2.16456e-07 1.81022e-07
-0.000134873 -1.55907e-07 9.45169e-08
-8.44925e-05 -8.67179e-08 -3.8073e-08
-0.000191986 -2.89156e-07 2.73049e-06
-0.000210653 -2.70206e-07 2.04707e-06
-0.000170741 -2.92981e-07 3.39914e-06
3.35664e-08 2.42576e-05 1.42533e-06
2.12698e-08 2.07465e-05 1.2338e-06
1.21361e-08 1.81778e-05 1.0842e-06
-0.000207735 -3.75406e-07 4.02942e-06
-0.00023637 -3.73191e-07 3.26885e-06
-0.000262374 -3.51133e-07 2.45134e-06
9.20652e-08 3.84672e-05 3.41787e-06
6.42251e-08 3.36527e-05 3.08251e-06
4.20494e-08 2.97872e-05 2.78448e-06
-0.000243071 -4.32862e-07 4.26387e-06
-0.000279809 -4.33385e-07 3.42959e-06
-0.000314056 -4.10492e-07 2.49409e-06
1.39908e-07 5.05105e-05 6.36581e-06
9.63907e-08 4.5329e-05 5.90129e-06
1.91442e-07 5.65574e-05 6.82588e-06
0.00206161 2.29732e-06 -1.04385e-05
0.00195937 2.19687e-06 -1.86438e-05
-0.000227269 -2.05713e-07 3.23929e-07
-0.000241255 -2.39933e-07 2.54143e-07
-0.000253432 -2.73094e-07 2.79373e-07
-0.000264101 -3.03125e-07 3.88121e-07
1.68959e-08 1.61462e-05 9.9395e-07
8.66565e-09 1.44038e-05 8.8219e-07
2.07662e-09 1.28377e-05 7.77417e-07
-0.000286173 -2.51284e-07 7.4121e-07
-0.000306984 -3.05079e-07 5.70895e-07
-0.00032559 -3.5938e-07 5.09415e-07
-0.000342246 -4.10573e-07 5.42777e-07
4.79513e-08 2.65544e-05 2.53628e-06
3.10828e-08 2.37317e-05 2.29648e-06
1.73435e-08 2.12106e-05 2.06662e-06
-0.000346103 -2.78354e-07 8.51565e-07
-0.000374931 -3.50191e-07 5.85845e-07
-0.000401236 -4.24882e-07 4.39795e-07
7.37626e-08 3.67546e-05 4.99297e-06
4.86059e-08 3.30853e-05 4.57993e-06
1.03882e-07 4.08094e-05 5.40504e-06
0.00230977 1.91469e-06 8.40656e-07
0.00223673 1.52223e-06 -3.5715e-07
0.00215543 1.12839e-06 -2.34303e-06
1.35412e-05 -5.50473e-09 -1.37049e-08
1.57746e-05 -6.52243e-09 -1.17191e-08
1.76675e-05 -7.54834e-09 -6.37089e-09
-4.36933e-05 -1.63714e-08 -1.71094e-08
-2.29697e-09 4.80845e-06 -2.83411e-07
-1.92299e-09 4.26931e-06 -2.53615e-07
-1.57102e-09 3.66218e-06 -2.18987e-07
-1.21055e-05 9.17464e-10 -3.29368e-09
-9.77711e-06 3.58831e-09 -1.42625e-09
-7.75569e-06 7.64279e-10 -1.85599e-09
-6.02484e-06 -9.95128e-10 -2.36455e-09
-1.91979e-09 3.64247e-06 -1.85013e-07
-1.74236e-09 3.25852e-06 -1.67374e-07
-1.53035e-09 2.79623e-06 -1.45037e-07
-4.21816e-05 1.61383e-08 -1.36469e-08
-4.08054e-05 4.0658e-09 -7.87093e-09
-3.96126e-05 -7.05968e-09 -4.19881e-09
-1.34027e-09 2.20692e-06 -8.80785e-08
-1.41793e-09 2.87575e-06 -1.10971e-07
-1.40993e-09 2.57789e-06 -1.01224e-07
-8.4503e-05 2.92707e-08 -4.46966e-08
-8.43435e-05 1.06271e-08 -1.14647e-08
-8.41938e-05 -7.19787e-09 1.60439e-08
-1.0654e-09 2.83487e-06 -6.04559e-08
-1.19788e-09 2.51985e-06 -5.54473e-08
-1.24334e-09 2.15356e-06 -4.89206e-08
-0.000137216 3.10302e-08 1.44241e-08
-0.000138988 1.09708e-08 3.63075e-08
-0.000140521 -7.51163e-09 4.53497e-08
-6.6523e-10 3.91808e-06 4.00454e-09
-1.04312e-09 3.44665e-06 1.69858e-09
-1.29346e-09 2.96195e-06 -5.16353e-10
-0.000200455 4.68526e-08 7.93592e-08
-0.000205031 1.83877e-08 1.25393e-07
-0.000209044 -7.84451e-09 1.54274e-07
8.3388e-10 6.59502e-06 1.8769e-07
-1.76763e-10 5.79262e-06 1.62991e-07
-9.41501e-10 5.02833e-06 1.3858e-07
1.92792e-05 -1.12151e-08 -9.35242e-10
2.06497e-05 -1.35031e-08 8.93441e-09
2.18183e-05 -1.60084e-08 2.10654e-08
-8.41008e-10 3.07785e-06 -1.86383e-07
-6.48659e-10 2.55828e-06 -1.55636e-07
-4.99353e-10 2.11155e-06 -1.28864e-07
-4.55075e-06 -2.20703e-10 -1.17327e-09
-3.28828e-06 -5.73227e-10 -7.02717e-10
-2.21027e-06 -6.46236e-10 -5.92564e-10
-7.39014e-10 2.33834e-06 -1.23789e-07
-6.02583e-10 1.9262e-06 -1.02731e-07
-4.88403e-10 1.57172e-06 -8.43403e-08
-3.8622e-05 -6.72997e-09 -1.96722e-08
-3.77537e-05 -1.48426e-08 8.38571e-09
-3.70107e-05 -2.23602e-08 3.19526e-08
-6.27595e-10 1.83331e-06 -7.49639e-08
-5.30088e-10 1.49398e-06 -6.18151e-08
-4.40889e-10 1.20209e-06 -5.02534e-08
-8.41453e-05 -1.09237e-08 -9.1999e-08
-8.40604e-05 -3.03993e-08 2.13097e-08
-8.39858e-05 -4.88333e-08 1.24237e-07
-5.40502e-10 1.79055e-06 -4.20005e-08
-4.85839e-10 1.4599e-06 -3.49364e-08
-4.24242e-10 1.17302e-06 -2.86029e-08
-0.000142001 -2.80653e-08 -7.06453e-08
-0.000143204 -6.03842e-08 9.30254e-08
-0.000144234 -9.0504e-08 2.36303e-07
-4.97678e-10 2.49987e-06 -1.68106e-09
-5.15e-10 2.07857e-06 -2.07937e-09
-5.00697e-10 1.70501e-06 -2.36035e-09
-0.000212784 -4.69553e-08 -7.64485e-08
-0.000215911 -9.46312e-08 1.68151e-07
-0.0002186 -1.3886e-07 3.84189e-07
-1.2331e-10 4.31805e-06 1.19432e-07
-3.53701e-10 3.66665e-06 1.00628e-07
-4.95963e-10 3.07455e-06 8.32009e-08
-0.000274095 8.43631e-08 3.13674e-07
-0.000282512 4.90806e-08 3.52719e-07
-0.000289962 1.67395e-08 3.69374e-07
5.51988e-09 1.1397e-05 6.96639e-07
2.46469e-09 1.00586e-05 6.17495e-07
6.76977e-11 8.81722e-06 5.40203e-07
-0.000425398 2.10994e-07 1.00451e-06
-0.000357741 1.32676e-07 7.34557e-07
-0.000371206 9.45414e-08 7.07766e-07
-0.000383228 6.01359e-08 6.49585e-07
5.40666e-09 1.48622e-05 1.48724e-06
1.79442e-08 1.89197e-05 1.85552e-06
1.10052e-08 1.68131e-05 1.67025e-06
-0.000447464 1.50536e-07 6.83838e-07
-0.000467249 9.22876e-08 6.20527e-07
-0.00048506 3.67765e-08 5.19836e-07
0.00237635 -1.67638e-06 -2.93349e-07
4.37863e-08 2.97239e-05 4.13282e-06
3.06826e-08 2.66064e-05 3.77356e-06
1.98161e-08 2.36909e-05 3.40923e-06
0.002436 -1.06372e-06 -1.43025e-07
0.00248875 -6.39182e-07 2.99225e-07
0.00253559 -2.30864e-07 8.78006e-07
-0.00029683 -5.51638e-08 -5.53408e-09
-0.000302664 -1.18721e-07 3.06647e-07
-0.000307702 -1.77506e-07 5.83091e-07
1.65134e-09 7.66817e-06 4.71655e-07
7.11318e-10 6.60383e-06 4.07219e-07
1.86406e-11 5.61626e-06 3.45583e-07
-0.000394263 -4.85524e-08 1.4571e-07
-0.000403749 -1.26687e-07 4.93325e-07
-0.000411977 -1.9932e-07 8.01313e-07
6.8516e-09 1.30444e-05 1.31048e-06
4.30521e-09 1.13381e-05 1.14834e-06
2.30705e-09 9.72828e-06 9.89084e-07
-0.000501407 3.86439e-09 1.21519e-07
-0.000515592 -9.24873e-08 5.257e-07
-0.00052795 -1.84082e-07 8.96373e-07
1.89035e-08 2.09446e-05 3.02103e-06
1.31362e-08 1.83278e-05 2.67827e-06
8.43093e-09 1.58233e-05 2.33291e-06
0.00261566 5.04921e-08 -2.83929e-07
0.00264721 5.68265e-07 -2.38046e-06
0.00257905 -4.92643e-07 1.9362e-06
2.28175e-05 1.49906e-08 -4.10401e-08
2.36429e-05 1.23468e-08 -3.05379e-08
2.43057e-05 9.25773e-09 -1.58403e-08
-1.78054e-10 1.72853e-06 -1.05279e-07
-1.43682e-10 1.39333e-06 -8.54141e-08
-1.11915e-10 1.09013e-06 -6.71122e-08
-1.29722e-06 -6.61491e-10 1.31628e-09
-5.36368e-07 -3.1137e-10 5.70948e-10
7.51609e-08 4.85522e-11 -7.93333e-11
-1.78166e-10 1.27061e-06 -6.866e-08
-1.44527e-10 1.01204e-06 -5.48647e-08
-1.13973e-10 7.83593e-07 -4.25513e-08
-3.6401e-05 -9.37811e-09 9.65802e-09
-3.58763e-05 -1.4158e-08 3.72192e-08
-3.54525e-05 -1.86805e-08 6.23588e-08
-1.22333e-10 9.56502e-07 -4.0599e-08
-1.03592e-10 7.49615e-07 -3.18479e-08
-8.46649e-11 5.71789e-07 -2.42779e-08
-8.39767e-05 -7.92944e-09 -4.24505e-08
-8.39205e-05 -1.58091e-08 9.4193e-08
-8.38682e-05 -2.32204e-08 2.26111e-07