# vtk DataFile Version 3.0
vtk output
ASCII
DATASET POLYDATA
POINTS 10302 float
0.18811 0.519919 -0.029829
0.188192 0.509935 -0.0291904
0.198387 0.514867 -0.0291036
0.208565 0.519811 -0.0290705
0.188269 0.499949 -0.0285687
0.22895 0.519711 -0.028563
0.198458 0.504887 -0.0284584
0.208631 0.509835 -0.0284047
0.218802 0.514766 -0.0284341
0.249303 0.519675 -0.0285104
0.26936 0.519696 -0.0284167
0.289416 0.519635 -0.0282491
0.329623 0.519523 -0.0284583
0.349619 0.519492 -0.0283533
0.369574 0.519464 -0.0283475
0.389934 0.519453 -0.0283957
0.409927 0.519443 -0.0282857
0.42992 0.519433 -0.0282575
0.449969 0.519392 -0.0283628
0.469971 0.519398 -0.0283464
0.489975 0.519406 -0.0284201
0.811889 0.519918 -0.0298287
0.811808 0.509934 -0.0291904
0.801613 0.514867 -0.0291034
0.791434 0.51981 -0.02907
0.811731 0.499949 -0.0285686
0.77105 0.51971 -0.0285624
0.510025 0.519406 -0.02842
0.530029 0.519398 -0.0283461
0.55003 0.519392 -0.0283624
0.570079 0.519433 -0.0282568
0.590073 0.519443 -0.0282849
0.610065 0.519453 -0.0283948
0.630426 0.519464 -0.0283468
0.650381 0.519492 -0.0283525
0.670377 0.519522 -0.0284575
0.710583 0.519634 -0.0282483
0.73064 0.519696 -0.0284158
0.801542 0.504886 -0.0284581
0.791368 0.509835 -0.0284043
0.781197 0.514766 -0.0284336
0.750697 0.519674 -0.02851
0.116724 0.644974 -0.0317493
0.116846 0.635001 -0.0310406
0.116952 0.625021 -0.0303528
0.10674 0.640075 -0.0298757
0.117046 0.615041 -0.0296775
0.106852 0.63012 -0.0291691
0.117124 0.605069 -0.0290233
0.117205 0.595078 -0.0283946
0.106945 0.620155 -0.0285105
0.0967146 0.645185 -0.0283954
0.16779 0.579817 -0.0315777
0.17808 0.574772 -0.031275
0.147291 0.579942 -0.0310972
0.167851 0.569836 -0.0309209
0.157581 0.574897 -0.0310725
0.15765 0.564921 -0.0304392
0.178144 0.564809 -0.0306059
0.147391 0.569976 -0.0304451
0.137141 0.575037 -0.0302702
0.167925 0.559877 -0.0302696
0.126926 0.58011 -0.0298775
0.157717 0.55495 -0.0298242
0.178195 0.554838 -0.0299666
0.147467 0.560002 -0.0298368
0.137228 0.565059 -0.0296681
0.167984 0.549908 -0.0296507
0.127023 0.570128 -0.0292872
0.157785 0.544983 -0.0292278
0.178247 0.544871 -0.0293441
0.147543 0.550032 -0.0292484
0.137313 0.555085 -0.0290883
0.168046 0.539944 -0.0290496
0.127117 0.56015 -0.0287188
0.15786 0.535019 -0.0286373
0.178305 0.534909 -0.0287324
0.147621 0.540066 -0.0286804
0.137398 0.545114 -0.0285295
0.168118 0.529983 -0.0284425
0.12721 0.550176 -0.028174
0.198312 0.524848 -0.0297539
0.218746 0.524743 -0.02909
0.239112 0.524648 -0.0287486
0.188027 0.529889 -0.030451
0.208511 0.529774 -0.0296919
0.228912 0.529672 -0.0291722
0.198246 0.534816 -0.0303824
0.218703 0.534706 -0.0297107
0.23908 0.53461 -0.0293503
0.187949 0.539861 -0.0310788
0.208462 0.53974 -0.0303179
0.228891 0.539634 -0.0297946
0.198187 0.544785 -0.0310125
0.218668 0.544672 -0.0303355
0.239054 0.544574 -0.0299619
0.187878 0.549834 -0.0317133
0.208419 0.549707 -0.0309497
0.228865 0.549599 -0.0304212
0.198133 0.554756 -0.0316513
0.218637 0.554638 -0.0309713
0.239033 0.55454 -0.0305883
0.18781 0.559815 -0.0323516
0.208381 0.559677 -0.0315931
0.228843 0.559565 -0.0310603
0.198084 0.564741 -0.0322535
0.218611 0.564607 -0.0316198
0.239017 0.564508 -0.0312287
0.187744 0.569775 -0.0330257
0.208347 0.569653 -0.0322462
0.228818 0.569541 -0.0316975
0.198034 0.574707 -0.0329718
0.218583 0.574599 -0.0322501
0.238996 0.574495 -0.0318646
0.187673 0.579746 -0.033724
0.208311 0.579632 -0.032925
0.228802 0.579532 -0.032353
0.157487 0.584878 -0.0317527
0.178024 0.584768 -0.0319462
0.137047 0.585028 -0.0308958
0.167723 0.589825 -0.0322484
0.147205 0.589947 -0.031755
0.126832 0.59012 -0.0304507
0.157412 0.594889 -0.0324237
0.177969 0.594781 -0.0326252
0.136938 0.59503 -0.0315395
0.16766 0.59984 -0.0329299
0.147127 0.599969 -0.032389
0.126707 0.600116 -0.0311303
0.177916 0.604799 -0.0333198
0.157342 0.604915 -0.0330837
0.136843 0.605047 -0.0322198
0.167578 0.609856 -0.0336218
0.14702 0.609975 -0.0331052
0.126575 0.61012 -0.0318462
0.177843 0.614818 -0.0340254
0.157267 0.614936 -0.0337938
0.136721 0.615055 -0.0329434
0.167514 0.619878 -0.034344
0.146932 0.619997 -0.0338203
0.126462 0.620144 -0.0325505
0.157168 0.624948 -0.0345344
0.177787 0.624839 -0.0347568
0.136619 0.625079 -0.0336622
0.146816 0.630013 -0.0345691
0.167445 0.629902 -0.0350817
0.126323 0.630155 -0.033296
0.177714 0.63486 -0.0354988
0.157083 0.634971 -0.0352858
0.136485 0.635092 -0.0344298
0.167359 0.639922 -0.0358328
0.146715 0.640038 -0.0353279
0.126169 0.640167 -0.0340772
0.156984 0.644991 -0.0360437
0.17764 0.64487 -0.036291
0.136339 0.64511 -0.0352076
0.197977 0.584684 -0.0336919
0.218554 0.584576 -0.0329604
0.238981 0.584488 -0.0325444
0.187593 0.589736 -0.0344739
0.208265 0.58962 -0.0336646
0.228777 0.589522 -0.0330775
0.187211 0.639855 -0.0382459
0.197918 0.594692 -0.0344304
0.218523 0.594586 -0.033685
0.238964 0.594498 -0.0332501
0.187518 0.599757 -0.035204
0.208224 0.599645 -0.0343844
0.228758 0.599549 -0.0337786
0.197863 0.604716 -0.0351269
0.218495 0.604613 -0.0344012
0.238951 0.604527 -0.0339455
0.208183 0.60967 -0.0350888
0.228738 0.609573 -0.034492
0.187424 0.60977 -0.035981
0.218466 0.614634 -0.0351299
0.238936 0.614551 -0.0346558
0.197794 0.614733 -0.0358946
0.228712 0.619603 -0.0352088
0.18735 0.619796 -0.0367402
0.208134 0.61969 -0.0358512
0.238919 0.624576 -0.035387
0.197737 0.624761 -0.0366586
0.218433 0.624659 -0.0358876
0.187274 0.629827 -0.0375252
0.208091 0.62972 -0.0366208
0.228687 0.629629 -0.0359609
0.197677 0.63479 -0.0374519
0.218396 0.63469 -0.0366421
0.23889 0.634607 -0.0361216
0.208042 0.639748 -0.0373905
0.228657 0.639649 -0.0367421
0.197613 0.644814 -0.0382372
0.218354 0.644708 -0.0374507
0.238861 0.64462 -0.0369136
0.10662 0.650056 -0.0305057
0.116604 0.654994 -0.032318
0.0965984 0.655162 -0.0289386
0.106512 0.660053 -0.0310601
0.116505 0.665016 -0.0328965
0.096494 0.665138 -0.0294929
0.106417 0.670057 -0.0316185
0.116414 0.675048 -0.0334713
0.0963926 0.675114 -0.030055
0.10633 0.680073 -0.0321828
0.116341 0.685087 -0.0340374
0.0963172 0.685102 -0.0305988
0.106263 0.690105 -0.0327396
0.11629 0.695097 -0.0346302
0.0962572 0.695099 -0.031153
0.106208 0.700143 -0.0333027
0.116232 0.705119 -0.0352363
0.0962022 0.705124 -0.0317183
0.106165 0.710168 -0.0338845
0.0863496 0.710097 -0.0297471
0.116201 0.715163 -0.0358129
0.0961768 0.715192 -0.0321994
0.0863399 0.720117 -0.0301702
0.106134 0.720217 -0.0343677
0.116153 0.72524 -0.0363064
0.096162 0.72527 -0.0326425
0.106124 0.730281 -0.0348879
0.0863171 0.730188 -0.0305809
0.116135 0.735314 -0.036853
0.0961522 0.735326 -0.033158
0.106097 0.740355 -0.0354076
0.0863086 0.740285 -0.0310268
0.116134 0.745381 -0.0373874
0.0961522 0.745388 -0.0336806
0.106096 0.750429 -0.0359478
0.0863154 0.750451 -0.0314776
0.11612 0.755472 -0.0379381
0.0961504 0.755465 -0.0341947
0.106084 0.760509 -0.0364917
0.0863079 0.760529 -0.0320323
0.116114 0.765577 -0.0385532
0.0961387 0.765551 -0.0347461
0.106058 0.770616 -0.0370981
0.0862856 0.770619 -0.032631
0.0766959 0.765569 -0.0296241
0.0767221 0.755484 -0.0291399
0.08645 0.700118 -0.0292101
0.0767165 0.7454 -0.0286529
0.0865231 0.69016 -0.0286724
0.0767006 0.735333 -0.0281732
0.0865934 0.6802 -0.0281501
0.146617 0.650024 -0.0360112
0.167282 0.649913 -0.0365527
0.126055 0.650145 -0.0347376
0.156908 0.654954 -0.036698
0.177581 0.654848 -0.0369422
0.136243 0.655057 -0.0358551
0.167216 0.659889 -0.0371923
0.146534 0.659983 -0.0366751
0.12592 0.660085 -0.0354018
0.177527 0.664836 -0.037584
0.156841 0.664926 -0.0373618
0.136153 0.665015 -0.0365158
0.167163 0.669874 -0.0378558
0.146459 0.669956 -0.0373373
0.125821 0.670046 -0.0360587
0.156781 0.674913 -0.037998
0.177488 0.674831 -0.0382506
0.136074 0.674986 -0.0371696
0.167117 0.67987 -0.0385221
0.146393 0.679941 -0.0379955
0.125733 0.680019 -0.0367056
0.15673 0.68491 -0.0386648
0.177454 0.684835 -0.0389242
0.136003 0.684972 -0.0377836
0.167074 0.689881 -0.0391994
0.146333 0.689942 -0.0386593
0.125617 0.689997 -0.0373907
0.156678 0.694925 -0.0393427
0.177416 0.694854 -0.0396155
0.135936 0.694977 -0.0384413
0.146278 0.699967 -0.0392925
0.167031 0.699907 -0.039886
0.125544 0.700002 -0.0380321
0.156632 0.704954 -0.0400156
0.177379 0.704886 -0.0403102
0.135874 0.704999 -0.0390957
0.146229 0.710002 -0.0399442
0.166992 0.709944 -0.0405651
0.125481 0.710028 -0.0386633
0.18713 0.649847 -0.0390229
0.207993 0.649742 -0.0381503
0.228621 0.649654 -0.0374668
0.197557 0.654782 -0.0389455
0.21832 0.654685 -0.0381438
0.238836 0.654609 -0.0375857
0.187073 0.659826 -0.039685
0.187028 0.669833 -0.040331
0.186873 0.710052 -0.0430028
0.186943 0.689888 -0.041686
0.186899 0.699951 -0.0423627
0.186973 0.679844 -0.0410621
0.207954 0.659723 -0.0388479
0.228599 0.659644 -0.0381443
0.197508 0.66477 -0.0396474
0.218293 0.664679 -0.0388304
0.238814 0.664623 -0.0382285
0.20792 0.669726 -0.0395404
0.228582 0.669654 -0.0388182
0.197468 0.674779 -0.040328
0.218274 0.674691 -0.0395041
0.238806 0.674642 -0.0388811
0.207893 0.679747 -0.0402174
0.228571 0.679678 -0.0394823
0.197428 0.6848 -0.0410504
0.218259 0.684721 -0.0401786
0.238801 0.684676 -0.0395398
0.20787 0.689794 -0.0408969
0.228562 0.689723 -0.0401554
0.197394 0.694852 -0.0417311
0.218243 0.694774 -0.0408651
0.238793 0.694729 -0.0402203
0.207847 0.699856 -0.0415823
0.22855 0.699783 -0.0408457
0.197363 0.704927 -0.0424172
0.218228 0.704842 -0.0415593
0.238783 0.704795 -0.0409203
0.207827 0.709946 -0.0422794
0.22854 0.709864 -0.0415514
0.156614 0.715 -0.0405565
0.177365 0.714951 -0.0408737
0.135851 0.715018 -0.0396092
0.167004 0.720027 -0.041023
0.146236 0.720034 -0.0404157
0.125488 0.720028 -0.0390701
0.177381 0.725064 -0.0413906
0.156621 0.725083 -0.0410346
0.135851 0.725062 -0.0400613
0.167013 0.730142 -0.0415443
0.146237 0.730116 -0.0409123
0.125477 0.730075 -0.0395458
0.177396 0.735207 -0.0419415
0.156635 0.735174 -0.0415932
0.135852 0.735134 -0.0406087
0.167032 0.740305 -0.0421184
0.14625 0.740252 -0.0414492
0.125514 0.740185 -0.0400271
0.177419 0.745405 -0.0425522
0.156656 0.745343 -0.042158
0.135867 0.745278 -0.0411384
[...]
POINT_DATA 10302
VECTORS alpha float
3.42951e-06 -1.93621e-08 1.70987e-07
3.34756e-06 -1.7765e-08 1.72172e-07
-5.32782e-08 1.74291e-05 -1.1845e-06
3.58257e-06 -1.86133e-08 1.24564e-07
3.17767e-06 -1.59932e-08 1.68824e-07
3.72977e-06 -1.73685e-08 6.20526e-08
-5.00312e-08 1.75107e-05 -1.18109e-06
3.49741e-06 -1.71714e-08 1.25095e-07
-1.41694e-08 1.63497e-05 -1.10215e-06
3.87076e-06 -1.6295e-08 1.64062e-08
3.96118e-06 -1.27559e-08 4.86982e-08
4.0706e-06 -1.18533e-08 1.88986e-08
4.27599e-06 -6.82166e-09 3.37039e-08
4.35372e-06 -6.37418e-09 1.18773e-08
4.4207e-06 -5.80002e-09 -9.38719e-09
4.4983e-06 -2.34153e-09 3.4442e-08
4.55204e-06 -2.27766e-09 1.55638e-08
4.59515e-06 -2.15326e-09 -2.73717e-09
4.62871e-06 1.37168e-09 1.44934e-08
4.65023e-06 1.58789e-09 -6.75228e-09
4.66151e-06 1.81022e-09 -2.76924e-08
3.42963e-06 1.93731e-08 -1.71047e-07
3.34677e-06 1.77717e-08 -1.72207e-07
-5.3201e-08 -1.74291e-05 1.18452e-06
3.58268e-06 1.86262e-08 -1.24601e-07
3.17615e-06 1.5998e-08 -1.68789e-07
3.72988e-06 1.73833e-08 -6.20649e-08
4.6615e-06 -1.81981e-09 2.77276e-08
4.65023e-06 -1.605e-09 6.78836e-09
4.62871e-06 -1.39614e-09 -1.44585e-08
4.59516e-06 2.14308e-09 2.74941e-09
4.55205e-06 2.26034e-09 -1.55404e-08
4.49832e-06 2.3174e-09 -3.44094e-08
4.42073e-06 5.8266e-09 9.39828e-09
4.35377e-06 6.38994e-09 -1.18676e-08
4.27605e-06 6.82697e-09 -3.36961e-08
4.0707e-06 1.18594e-08 -1.89018e-08
3.96127e-06 1.27535e-08 -4.86991e-08
-4.99579e-08 -1.75107e-05 1.18115e-06
3.49663e-06 1.71806e-08 -1.25122e-07
-1.41014e-08 -1.63497e-05 1.10235e-06
3.87086e-06 1.63101e-08 -1.63779e-08
-8.49274e-08 1.23185e-05 -8.09596e-07
-7.85046e-08 1.2434e-05 -8.18264e-07
-7.24894e-08 1.25369e-05 -8.20936e-07
3.92003e-06 -2.42112e-08 -6.23264e-07
-6.71714e-08 1.26317e-05 -8.1941e-07
3.7324e-06 -2.41646e-08 -5.78293e-07
-6.47819e-08 1.27198e-05 -8.14362e-07
-6.24051e-08 1.28054e-05 -8.09446e-07
3.60104e-06 -2.4008e-08 -5.4448e-07
-7.89054e-08 1.30427e-05 -7.96641e-07
3.77497e-06 -2.0655e-08 -3.25879e-08
1.93498e-09 1.70829e-05 -1.25104e-06
3.58826e-06 -1.93546e-08 -1.31299e-07
3.67344e-06 -2.02594e-08 -2.84073e-08
-5.07669e-08 1.61688e-05 -1.18218e-06
-4.64118e-08 1.62508e-05 -1.16561e-06
-5.55441e-09 1.71689e-05 -1.23789e-06
3.48801e-06 -1.89263e-08 -1.24139e-07
-9.91378e-08 1.44642e-05 -1.04853e-06
3.58048e-06 -1.97432e-08 -2.48228e-08
3.39562e-06 -1.73665e-08 -2.48391e-07
-4.5675e-08 1.63325e-05 -1.14914e-06
-4.83288e-09 1.72526e-05 -1.22174e-06
3.39832e-06 -1.83503e-08 -1.15842e-07
-9.5367e-08 1.45428e-05 -1.03185e-06
3.49498e-06 -1.92183e-08 -1.99603e-08
3.3007e-06 -1.69029e-08 -2.35413e-07
-4.87343e-08 1.64135e-05 -1.13302e-06
-8.48228e-09 1.73357e-05 -1.20696e-06
3.3151e-06 -1.78001e-08 -1.07612e-07
-9.48635e-08 1.46207e-05 -1.01541e-06
3.41108e-06 -1.86731e-08 -1.49055e-08
3.21429e-06 -1.63241e-08 -2.22835e-07
-5.63602e-08 1.64937e-05 -1.12184e-06
-1.67318e-08 1.74179e-05 -1.1955e-06
3.23404e-06 -1.72309e-08 -9.92726e-08
-9.73236e-08 1.46979e-05 -9.98423e-07
3.33086e-06 -1.80759e-08 -1.23119e-08
3.13413e-06 -1.57763e-08 -2.10438e-07
-5.14135e-08 1.7348e-05 -1.19074e-06
-1.19981e-08 1.6272e-05 -1.10702e-06
2.04413e-08 1.46631e-05 -9.87717e-07
3.51657e-06 -2.02704e-08 1.74971e-07
3.6711e-06 -1.93378e-08 1.28961e-07
3.81954e-06 -1.78674e-08 6.6807e-08
-4.26384e-08 1.72654e-05 -1.19277e-06
-3.9773e-09 1.61928e-05 -1.11129e-06
2.76054e-08 1.45891e-05 -9.92976e-07
3.60378e-06 -2.11701e-08 1.79462e-07
3.75899e-06 -2.00476e-08 1.33715e-07
3.90873e-06 -1.84318e-08 7.40813e-08
-3.5516e-08 1.71825e-05 -1.19662e-06
2.55162e-09 1.61133e-05 -1.11748e-06
3.33145e-08 1.45146e-05 -1.00037e-06
3.69528e-06 -2.19877e-08 1.84691e-07
3.85051e-06 -2.07375e-08 1.38085e-07
3.99999e-06 -1.882e-08 7.79395e-08
-3.00324e-08 1.70995e-05 -1.20205e-06
7.38469e-09 1.60333e-05 -1.12478e-06
3.75827e-08 1.44394e-05 -1.00849e-06
3.7878e-06 -2.26476e-08 1.90097e-07
3.94201e-06 -2.13409e-08 1.4254e-07
4.08994e-06 -1.91516e-08 8.18917e-08
-2.74738e-08 1.70205e-05 -1.20469e-06
1.03829e-08 1.59538e-05 -1.13425e-06
3.99841e-08 1.43643e-05 -1.01896e-06
3.88658e-06 -2.32773e-08 1.95176e-07
4.03911e-06 -2.17995e-08 1.47592e-07
4.18376e-06 -1.92534e-08 8.3882e-08
-2.46063e-08 1.69364e-05 -1.21888e-06
1.02753e-08 1.58787e-05 -1.13918e-06
3.9019e-08 1.42929e-05 -1.02565e-06
3.99515e-06 -2.37323e-08 2.00543e-07
4.14536e-06 -2.20555e-08 1.52573e-07
4.28656e-06 -1.92027e-08 8.86309e-08
-3.74052e-08 1.60831e-05 -1.18567e-06
4.12591e-09 1.69978e-05 -1.25624e-06
-9.699e-08 1.43847e-05 -1.05767e-06
3.88894e-06 -2.07218e-08 -3.52665e-08
3.69848e-06 -1.95108e-08 -1.38338e-07
3.49939e-06 -1.74387e-08 -2.62875e-07
-2.83603e-08 1.59973e-05 -1.18021e-06
1.4098e-08 1.69101e-05 -1.24877e-06
-8.51976e-08 1.43036e-05 -1.04867e-06
4.01136e-06 -2.1038e-08 -3.78313e-08
3.81463e-06 -1.9656e-08 -1.47167e-07
3.61111e-06 -1.78549e-08 -2.74282e-07
1.9673e-08 1.68191e-05 -1.24681e-06
-2.70395e-08 1.59099e-05 -1.16961e-06
-7.91899e-08 1.42154e-05 -1.04341e-06
4.15981e-06 -2.13847e-08 -4.07123e-08
3.95584e-06 -2.01919e-08 -1.53709e-07
3.74225e-06 -1.84671e-08 -2.86078e-07
2.78336e-08 1.67245e-05 -1.23912e-06
-2.54476e-08 1.58129e-05 -1.17085e-06
-6.85464e-08 1.41194e-05 -1.03845e-06
4.31698e-06 -2.25768e-08 -4.33688e-08
4.10184e-06 -2.12465e-08 -1.62007e-07
3.87555e-06 -1.94719e-08 -3.00172e-07
-1.72923e-08 1.57085e-05 -1.17333e-06
2.32332e-08 1.6621e-05 -1.2494e-06
-6.9884e-08 1.4016e-05 -1.03824e-06
4.27369e-06 -2.28047e-08 -1.70074e-07
4.50268e-06 -2.45915e-08 -4.6595e-08
4.03058e-06 -2.09673e-08 -3.15144e-07
1.2685e-08 1.65115e-05 -1.2529e-06
-2.4739e-08 1.55941e-05 -1.1827e-06
-6.60806e-08 1.39028e-05 -1.04032e-06
4.76929e-06 -2.71845e-08 -5.30164e-08
4.51765e-06 -2.55636e-08 -1.8322e-07
4.2515e-06 -2.31676e-08 -3.35556e-07
-3.52966e-08 1.5469e-05 -1.18226e-06
9.05297e-10 1.63862e-05 -1.26631e-06
-6.38269e-08 1.37785e-05 -1.045e-06
-2.00895e-08 1.68539e-05 -1.22843e-06
1.37299e-08 1.57994e-05 -1.14977e-06
4.15708e-08 1.42191e-05 -1.03304e-06
4.11745e-06 -2.36797e-08 2.07662e-07
4.26597e-06 -2.18968e-08 1.5913e-07
4.40405e-06 -1.87319e-08 9.48019e-08
5.09114e-06 -2.72658e-08 2.67672e-07
-1.28069e-08 1.67714e-05 -1.22875e-06
1.88474e-08 1.572e-05 -1.15082e-06
4.45184e-08 1.41437e-05 -1.03479e-06
4.24977e-06 -2.37314e-08 2.16218e-07
4.3974e-06 -2.18689e-08 1.67257e-07
4.53272e-06 -1.8406e-08 1.0235e-07
-7.92528e-09 1.66894e-05 -1.22387e-06
2.24786e-08 1.56395e-05 -1.14929e-06
4.60142e-08 1.40683e-05 -1.03524e-06
4.55949e-06 -2.18328e-08 1.72776e-07
4.69471e-06 -1.8457e-08 1.10481e-07
4.41462e-06 -2.38798e-08 2.32216e-07
2.41218e-08 1.55547e-05 -1.15069e-06
4.56723e-08 1.39898e-05 -1.03882e-06
1.00293e-10 1.6599e-05 -1.2248e-06
4.87161e-06 -1.83766e-08 1.17531e-07
4.58811e-06 -2.4549e-08 2.44096e-07
4.7386e-06 -2.2144e-08 1.87545e-07
4.35732e-08 1.39075e-05 -1.04406e-06
1.59114e-09 1.65029e-05 -1.22649e-06
2.72504e-08 1.54638e-05 -1.15773e-06
4.79555e-06 -2.57649e-08 2.5839e-07
4.95345e-06 -2.34089e-08 2.00342e-07
5.0916e-06 -1.90912e-08 1.32193e-07
1.18528e-09 1.63969e-05 -1.22974e-06
2.34203e-08 1.5369e-05 -1.161e-06
4.13556e-08 1.38208e-05 -1.05275e-06
5.26473e-06 -2.47942e-08 2.13073e-07
5.41337e-06 -2.10883e-08 1.45732e-07
-1.9096e-09 1.62813e-05 -1.23002e-06
1.9409e-08 1.526e-05 -1.16525e-06
3.6004e-08 1.37237e-05 -1.05805e-06
4.06616e-06 -2.37849e-08 -6.59817e-07
-6.56541e-08 1.21938e-05 -8.07084e-07
-6.57929e-08 1.29175e-05 -7.90639e-07
4.18627e-06 -2.19627e-08 -6.92663e-07
-5.10036e-08 1.20604e-05 -8.02479e-07
-5.50679e-08 1.27875e-05 -7.84037e-07
4.30871e-06 -2.00048e-08 -7.26677e-07
-3.36184e-08 1.1922e-05 -7.92291e-07
-5.01132e-08 1.26591e-05 -7.71353e-07
4.40745e-06 -1.81747e-08 -7.57096e-07
-1.72365e-08 1.17768e-05 -7.82036e-07
-3.84522e-08 1.2521e-05 -7.60906e-07
4.48064e-06 -1.61026e-08 -7.82868e-07
-4.87976e-09 1.1622e-05 -7.67833e-07
-2.59923e-08 1.2383e-05 -7.46237e-07
4.50003e-06 -1.40666e-08 -7.98767e-07
9.61517e-09 1.14716e-05 -7.4506e-07
-1.37127e-08 1.22497e-05 -7.24264e-07
4.48802e-06 -1.32427e-08 -8.08552e-07
4.12707e-06 -1.83869e-08 -1.01997e-06
2.18658e-08 1.13317e-05 -7.14012e-07
-6.94943e-11 1.21354e-05 -7.03361e-07
4.08642e-06 -1.53277e-08 -1.02191e-06
4.40941e-06 -1.10667e-08 -8.04071e-07
4.7597e-08 1.12076e-05 -6.91611e-07
2.32511e-08 1.2031e-05 -6.96081e-07
4.32267e-06 -9.94476e-09 -7.97474e-07
4.04751e-06 -1.24752e-08 -1.02442e-06
5.83573e-08 1.11099e-05 -6.63513e-07
3.42028e-08 1.19506e-05 -6.82611e-07
4.20028e-06 -7.91086e-09 -7.83329e-07
3.99186e-06 -9.80354e-09 -1.0227e-06
6.83641e-08 1.10498e-05 -6.4153e-07
4.53678e-08 1.19063e-05 -6.64397e-07
4.12319e-06 -7.75579e-09 -7.75872e-07
3.9848e-06 -7.23345e-09 -1.03348e-06
8.25254e-08 1.10383e-05 -6.22036e-07
6.09687e-08 1.19021e-05 -6.40996e-07
4.25211e-06 -8.1239e-09 -8.06576e-07
4.14925e-06 -7.57633e-09 -1.08828e-06
9.14736e-08 1.10551e-05 -6.01684e-07
7.65647e-08 1.19178e-05 -6.14527e-07
4.36639e-06 -8.16388e-09 -8.33709e-07
4.3147e-06 -8.77322e-09 -1.1408e-06
8.57543e-08 1.77468e-05 -8.59248e-07
5.39147e-08 1.77722e-05 -8.91575e-07
4.12302e-06 -2.08579e-08 -1.00274e-06
3.10352e-08 1.77967e-05 -9.16908e-07
4.09769e-06 -2.20071e-08 -9.80703e-07
1.4928e-08 1.78476e-05 -9.31346e-07
4.03236e-06 -2.30614e-08 -9.49085e-07
4.71754e-06 -2.50509e-08 -1.9621e-07
4.99529e-06 -2.75992e-08 -5.65308e-08
4.42669e-06 -2.27209e-08 -3.56186e-07
-2.08661e-08 1.53446e-05 -1.16638e-06
1.48786e-08 1.62633e-05 -1.2552e-06
-4.97183e-08 1.36566e-05 -1.02584e-06
5.18643e-06 -2.45111e-08 -5.94214e-08
4.8862e-06 -2.24559e-08 -2.03813e-07
4.57527e-06 -1.94911e-08 -3.69408e-07
2.00074e-08 1.61358e-05 -1.24635e-06
-1.33223e-08 1.52111e-05 -1.16173e-06
-4.14004e-08 1.35261e-05 -1.01693e-06
5.39394e-06 -2.27436e-08 -6.13876e-08
5.06414e-06 -2.02591e-08 -2.12687e-07
4.72686e-06 -1.7003e-08 -3.84778e-07
-1.00305e-08 1.50691e-05 -1.1507e-06
2.10266e-08 1.59911e-05 -1.24968e-06
-3.5471e-08 1.33846e-05 -1.00898e-06
5.57007e-06 -2.11936e-08 -6.49247e-08
5.21163e-06 -1.82321e-08 -2.22126e-07
4.85057e-06 -1.4544e-08 -3.99589e-07
-6.91832e-09 1.49102e-05 -1.14899e-06
2.13552e-08 1.58315e-05 -1.25212e-06
-3.00203e-08 1.32357e-05 -9.94341e-07
5.70531e-06 -2.00691e-08 -6.93328e-08
5.32163e-06 -1.65804e-08 -2.309e-07
4.94486e-06 -1.25602e-08 -4.09694e-07
-3.35519e-09 1.47399e-05 -1.13756e-06
2.12129e-08 1.56586e-05 -1.24255e-06
-2.32695e-08 1.30746e-05 -9.81243e-07
5.3489e-06 -1.39748e-08 -2.39563e-07
5.74852e-06 -1.9129e-08 -7.479e-08
4.96697e-06 -1.05804e-08 -4.18361e-07
5.08673e-10 1.45637e-05 -1.1214e-06
2.1009e-08 1.54761e-05 -1.22638e-06
-1.60317e-08 1.29116e-05 -9.65616e-07
5.32051e-06 -1.30022e-08 -2.45735e-07
5.72401e-06 -1.87804e-08 -8.15668e-08
4.94428e-06 -8.98634e-09 -4.24265e-07
5.35123e-06 -2.7405e-08 2.84591e-07
5.5424e-06 -2.48566e-08 2.28703e-07
5.70401e-06 -2.00672e-08 1.56892e-07
5.39291e-09 1.61791e-05 -1.21842e-06
2.54049e-08 1.51654e-05 -1.15625e-06
4.06745e-08 1.36387e-05 -1.05167e-06
5.57347e-06 -2.54177e-08 2.95549e-07
5.81963e-06 -2.39263e-08 3.0761e-07
6.27593e-06 -2.22691e-08 3.13614e-07
6.21044e-06 -2.28381e-08 3.26398e-07
6.28369e-06 -2.20955e-08 3.24847e-07
6.03842e-06 -2.355e-08 3.24944e-07
5.78576e-06 -2.27567e-08 2.43402e-07
5.96317e-06 -1.77156e-08 1.71347e-07
1.05053e-08 1.6065e-05 -1.21365e-06
2.89038e-08 1.50603e-05 -1.15329e-06
4.14101e-08 1.35492e-05 -1.04784e-06
6.06182e-06 -2.12447e-08 2.59929e-07
6.26411e-06 -1.61085e-08 1.87298e-07
1.47665e-08 1.59342e-05 -1.21064e-06
3.06669e-08 1.49394e-05 -1.15306e-06
4.12931e-08 1.34415e-05 -1.05112e-06
6.31005e-06 -1.99539e-08 2.72464e-07
6.54209e-06 -1.49951e-08 2.0155e-07
1.90582e-08 1.5781e-05 -1.21191e-06
3.18545e-08 1.48007e-05 -1.15549e-06
4.04811e-08 1.3317e-05 -1.05677e-06
6.51648e-06 -1.93715e-08 2.813e-07
6.78091e-06 -1.47231e-08 2.12496e-07
2.30362e-08 1.56129e-05 -1.20704e-06
3.27851e-08 1.4643e-05 -1.15384e-06
3.89105e-08 1.31744e-05 -1.05861e-06
6.61788e-06 -1.9182e-08 2.82743e-07
6.91391e-06 -1.50699e-08 2.16286e-07
2.72611e-08 1.54292e-05 -1.20069e-06
3.38612e-08 1.44675e-05 -1.14968e-06
3.72486e-08 1.30134e-05 -1.05813e-06
6.63438e-06 -1.98707e-08 2.78668e-07
6.95798e-06 -1.64919e-08 2.14165e-07
1.87664e-08 1.43896e-05 -1.09351e-06
3.65244e-08 1.52884e-05 -1.19729e-06
3.71463e-09 1.2757e-05 -9.38439e-07
5.56042e-06 -9.59499e-09 -8.50017e-08
5.17644e-06 -4.98953e-09 -2.42537e-07
4.82816e-06 9.03416e-12 -4.20322e-07
4.74132e-08 1.5113e-05 -1.18131e-06
4.32518e-08 1.42364e-05 -1.07301e-06
2.84156e-08 1.26292e-05 -9.19119e-07
5.33777e-06 -3.39709e-09 -8.69043e-08
4.99189e-06 1.27351e-09 -2.38184e-07
4.69082e-06 6.42676e-09 -4.11957e-07
6.59412e-08 1.49549e-05 -1.15984e-06
5.40282e-08 1.40998e-05 -1.06147e-06
3.97185e-08 1.2523e-05 -9.13093e-07
5.00135e-06 2.80074e-13 -8.88951e-08
4.72135e-06 4.8213e-09 -2.30966e-07
4.49105e-06 9.87025e-09 -4.00861e-07
7.06105e-08 1.48249e-05 -1.13974e-06
6.28171e-08 1.40016e-05 -1.0444e-06
5.10672e-08 1.24574e-05 -9.00655e-07
4.65832e-06 1.05203e-09 -9.18474e-08
4.46691e-06 6.10089e-09 -2.25403e-07
4.328e-06 1.12506e-08 -3.90772e-07
6.57631e-08 1.39509e-05 -1.03155e-06
7.348e-08 1.4733e-05 -1.10901e-06
6.22142e-08 1.24363e-05 -8.83299e-07
4.57176e-06 -8.28384e-10 -1.012e-07
4.46481e-06 4.65749e-09 -2.33718e-07
4.40417e-06 1.10917e-08 -4.01897e-07
7.7337e-08 1.39259e-05 -9.78715e-07
8.20221e-08 1.46735e-05 -1.03626e-06
6.75509e-08 1.24518e-05 -8.74476e-07
4.40034e-06 -5.61241e-10 -2.34027e-07
4.39461e-06 -7.40346e-09 -9.79191e-08
4.44071e-06 7.55312e-09 -4.1215e-07
3.64021e-08 1.52527e-05 -1.18069e-06
3.83899e-08 1.42924e-05 -1.13301e-06
3.75126e-08 1.28469e-05 -1.0474e-06
6.10905e-06 -1.50856e-08 3.04054e-07
5.86453e-06 -1.34059e-08 3.06273e-07
5.4718e-06 -1.30087e-08 2.87478e-07
5.04224e-06 -1.48355e-08 2.61791e-07
4.87167e-06 -1.93858e-08 2.57271e-07
4.57419e-06 -2.54875e-08 2.49156e-07
6.47535e-06 -1.33099e-08 2.7983e-07
6.81394e-06 -8.15903e-09 2.14621e-07
4.25291e-08 1.50913e-05 -1.16881e-06
4.08978e-08 1.4124e-05 -1.12316e-06
3.63555e-08 1.26798e-05 -1.04346e-06
6.55474e-06 -3.61394e-09 2.11472e-07
6.21617e-06 -9.14129e-09 2.75861e-07
5.0401e-08 1.49352e-05 -1.16207e-06
4.65958e-08 1.39537e-05 -1.11382e-06
3.91129e-08 1.25051e-05 -1.03682e-06
5.78565e-06 -7.87359e-09 2.59721e-07
6.1038e-06 -1.65501e-09 1.98274e-07
5.45949e-08 1.47912e-05 -1.15343e-06
4.85482e-08 1.3789e-05 -1.10057e-06
3.79318e-08 1.23294e-05 -1.02582e-06
5.29222e-06 -7.93605e-09 2.31911e-07
5.56505e-06 -2.77384e-09 1.78568e-07
6.59483e-08 1.46606e-05 -1.10332e-06
5.02311e-08 1.36424e-05 -1.08198e-06
3.61081e-08 1.21651e-05 -1.00943e-06
5.04034e-06 -1.35657e-08 2.26292e-07
5.24298e-06 -7.03216e-09 1.66469e-07
8.57743e-08 1.45535e-05 -1.00606e-06
6.38567e-08 1.3507e-05 -9.82645e-07
4.34375e-08 1.20121e-05 -9.1965e-07
4.63051e-06 -1.96125e-08 2.12127e-07
4.73622e-06 -1.30664e-08 1.51305e-07
6.0524e-09 1.28887e-05 -9.11944e-07
1.29255e-08 1.11937e-05 -7.88613e-07
3.96378e-06 -1.6844e-08 2.14037e-08
4.05216e-06 -1.72438e-08 2.68728e-08
4.14307e-06 -1.7531e-08 3.07119e-08
4.23115e-06 -1.77183e-08 3.40926e-08
4.32201e-06 -1.77982e-08 3.96412e-08
4.42054e-06 -1.7633e-08 4.41023e-08
4.05971e-06 -1.30758e-08 4.98477e-08
1.06074e-08 1.28281e-05 -9.18219e-07
1.67097e-08 1.11378e-05 -7.92668e-07
4.15504e-06 -1.34945e-08 5.11928e-08
1.46888e-08 1.27652e-05 -9.24549e-07
2.00353e-08 1.10795e-05 -7.96599e-07
4.25247e-06 -1.40099e-08 5.27191e-08
1.83644e-08 1.27e-05 -9.30235e-07
4.34566e-06 -1.46009e-08 5.46636e-08
2.14914e-08 1.26332e-05 -9.35534e-07
2.53447e-08 1.0957e-05 -8.03456e-07
4.44169e-06 -1.52083e-08 5.73458e-08
4.55478e-06 -1.26295e-08 2.70586e-08
4.657e-06 -9.68431e-09 -6.71837e-10
2.30266e-08 1.25679e-05 -9.35721e-07
2.76056e-08 1.08942e-05 -8.05926e-07
2.91283e-08 9.423e-06 -6.90421e-07
4.54248e-06 -1.58067e-08 6.05741e-08
4.65241e-06 -1.28342e-08 3.00488e-08
4.75172e-06 -9.48145e-09 2.22189e-09
2.89024e-08 9.48009e-06 -6.90464e-07
4.45933e-06 -1.23976e-08 2.56588e-08
4.56239e-06 -9.93448e-09 -2.50612e-09
2.46271e-08 1.10176e-05 -8.01261e-07
2.72251e-08 9.53733e-06 -6.8809e-07
4.36642e-06 -1.22008e-08 2.36721e-08
4.46954e-06 -1.01161e-08 -4.58483e-09
2.49536e-08 9.59296e-06 -6.86227e-07
4.26777e-06 -1.20497e-08 2.21384e-08
4.36958e-06 -1.03148e-08 -6.13115e-09
2.23708e-08 9.64633e-06 -6.84011e-07
4.17086e-06 -1.196e-08 2.07809e-08
4.27107e-06 -1.05468e-08 -7.57707e-09
1.93061e-08 9.69736e-06 -6.81648e-07
1.29773e-08 8.419e-06 -6.04969e-07
1.18967e-08 7.31474e-06 -5.24812e-07
1.07621e-08 6.32425e-06 -4.53414e-07
4.38556e-06 -6.80917e-09 3.3421e-08
4.4662e-06 -6.12571e-09 1.1355e-08
4.53574e-06 -5.30601e-09 -1.00988e-08
1.58049e-08 8.37332e-06 -6.0584e-07
1.39461e-08 7.27394e-06 -5.24863e-07
1.21809e-08 6.28844e-06 -4.52866e-07
4.49029e-06 -6.89569e-09 3.33654e-08
4.57356e-06 -5.95247e-09 1.10859e-08
4.6455e-06 -4.86265e-09 -1.05469e-08
1.82411e-08 8.32539e-06 -6.06842e-07
1.5642e-08 7.23099e-06 -5.2493e-07
1.32811e-08 6.25062e-06 -4.52279e-07
4.59648e-06 -7.03796e-09 3.34575e-08
4.68234e-06 -5.81156e-09 1.09066e-08
4.75676e-06 -4.42663e-09 -1.09844e-08
2.03129e-08 8.27512e-06 -6.07507e-07
1.70352e-08 7.18577e-06 -5.24631e-07
1.41317e-08 6.21065e-06 -4.5133e-07
4.69448e-06 -7.23355e-09 3.39606e-08
4.78201e-06 -5.68811e-09 1.12122e-08
4.85819e-06 -3.97194e-09 -1.0853e-08
2.20297e-08 8.2231e-06 -6.07999e-07
1.81026e-08 7.13876e-06 -5.24259e-07
1.46886e-08 6.16889e-06 -4.50396e-07
4.79316e-06 -7.42989e-09 3.51995e-08
4.88182e-06 -5.53586e-09 1.21036e-08
4.95938e-06 -3.45811e-09 -1.02887e-08
2.26052e-08 8.17144e-06 -6.04571e-07
1.89899e-08 7.09057e-06 -5.23228e-07
1.51062e-08 6.12586e-06 -4.48851e-07
4.89178e-06 -7.71249e-09 3.6074e-08
4.97905e-06 -5.3792e-09 1.37989e-08
5.05652e-06 -2.94399e-09 -8.75688e-09
4.53379e-06 -1.73162e-08 5.18106e-08
4.65822e-06 -1.70474e-08 6.16955e-08
4.81728e-06 -1.72035e-08 7.21625e-08
4.99325e-06 -1.74973e-08 8.26675e-08
5.21215e-06 -1.78669e-08 9.6351e-08
5.53942e-06 -2.04487e-08 1.08313e-07
2.62234e-08 1.24996e-05 -9.3842e-07
2.96234e-08 1.08312e-05 -8.05361e-07
3.02111e-08 9.36452e-06 -6.89763e-07
4.65763e-06 -1.62891e-08 6.41896e-08
4.76403e-06 -1.29631e-08 3.36025e-08
4.85998e-06 -9.24576e-09 5.88823e-09
2.93387e-08 1.24297e-05 -9.41448e-07
3.12036e-08 1.07664e-05 -8.08156e-07
3.06347e-08 9.30443e-06 -6.92289e-07
4.78356e-06 -1.69183e-08 6.83541e-08
4.88566e-06 -1.32343e-08 3.76209e-08
4.97725e-06 -9.14998e-09 9.97543e-09
3.23753e-08 1.23594e-05 -9.40664e-07
3.265e-08 1.07015e-05 -8.08105e-07
3.08799e-08 9.24452e-06 -6.92544e-07
4.94565e-06 -1.76974e-08 7.24076e-08
5.04308e-06 -1.37837e-08 4.238e-08
5.13012e-06 -9.30301e-09 1.4647e-08
3.07055e-08 9.18323e-06 -6.94107e-07
3.71862e-08 1.22855e-05 -9.43655e-07
3.42256e-08 1.06357e-05 -8.09407e-07
5.30289e-06 -9.39035e-09 1.99709e-08
5.12689e-06 -1.87879e-08 8.0039e-08
5.22052e-06 -1.42493e-08 4.92815e-08
3.78806e-08 1.22114e-05 -9.43393e-07
3.45204e-08 1.05666e-05 -8.12056e-07
3.02616e-08 9.12143e-06 -6.96501e-07
5.3546e-06 -1.98964e-08 8.52976e-08
5.4455e-06 -1.54966e-08 5.48439e-08
5.52338e-06 -1.02092e-08 2.74119e-08
3.89317e-08 1.21283e-05 -9.47238e-07
3.32583e-08 1.04955e-05 -8.13287e-07
2.81001e-08 9.05804e-06 -6.97884e-07
5.69307e-06 -2.23185e-08 9.35303e-08
5.78486e-06 -1.71227e-08 6.16793e-08
5.86014e-06 -1.14901e-08 3.4223e-08
3.822e-08 1.20396e-05 -9.48932e-07
3.23206e-08 1.04158e-05 -8.17296e-07
2.62893e-08 8.98811e-06 -7.01344e-07
2.41592e-08 8.1175e-06 -6.04457e-07
1.91809e-08 7.04254e-06 -5.19796e-07
1.54262e-08 6.08186e-06 -4.46656e-07
5.00284e-06 -7.70019e-09 3.91684e-08
5.08916e-06 -5.11171e-09 1.65162e-08
5.16627e-06 -2.39484e-09 -5.9802e-09
2.5642e-08 8.06237e-06 -6.04926e-07
1.99381e-08 6.99194e-06 -5.19829e-07
1.56081e-08 6.03605e-06 -4.4671e-07
5.12215e-06 -7.73629e-09 4.26366e-08
5.20651e-06 -4.93047e-09 1.95128e-08
5.28231e-06 -1.92824e-09 -2.92862e-09
2.69414e-08 8.00735e-06 -6.02759e-07
2.05138e-08 6.94127e-06 -5.17912e-07
1.5176e-08 5.99083e-06 -4.43601e-07
5.27722e-06 -7.86517e-09 4.65002e-08
5.36006e-06 -4.70409e-09 2.36156e-08
5.43398e-06 -1.32483e-09 1.81481e-09
2.77769e-08 7.95147e-06 -6.02703e-07
2.06996e-08 6.88979e-06 -5.18045e-07
1.48797e-08 5.94389e-06 -4.43947e-07