# vtk DataFile Version 3.0
vtk output
ASCII
DATASET POLYDATA
POINTS 20806 float
0.182871 0.919951 -0.051882
0.193503 0.914844 -0.0518441
0.204081 0.919735 -0.0521083
0.172057 0.925052 -0.0520574
0.170963 0.985014 -0.0557346
0.171172 0.975022 -0.0551068
0.160243 0.980124 -0.0550024
0.17135 0.96503 -0.0544742
0.160442 0.970128 -0.0544547
0.149408 0.98523 -0.0545681
0.149607 0.975235 -0.0539799
0.171538 0.955038 -0.0538614
0.160649 0.96014 -0.0538229
0.171706 0.945039 -0.0532928
0.160856 0.950142 -0.0531984
0.149843 0.965246 -0.0533636
0.150075 0.95525 -0.0527811
0.138974 0.98034 -0.0529093
0.171876 0.935049 -0.0526861
0.161051 0.940152 -0.0526052
0.139204 0.970344 -0.0523704
0.150327 0.945256 -0.0521111
0.161253 0.930158 -0.0519934
0.139382 0.960354 -0.0519233
0.19335 0.924838 -0.05246
0.214684 0.924633 -0.0522092
0.203955 0.929728 -0.0526924
0.193191 0.934831 -0.0530678
0.181904 0.979909 -0.0555725
0.182081 0.969917 -0.0549539
0.182227 0.959925 -0.0543401
0.192497 0.984793 -0.0560934
0.213987 0.984579 -0.0560608
0.20333 0.979689 -0.0557789
0.22466 0.979487 -0.0555833
0.23513 0.984396 -0.0557769
0.203458 0.969693 -0.0551902
0.192651 0.974803 -0.0554844
0.214104 0.974589 -0.0554302
0.235227 0.974404 -0.055132
0.192777 0.96481 -0.0548994
0.214207 0.964599 -0.0548158
0.224771 0.969498 -0.0549343
0.192916 0.954815 -0.0542971
0.203584 0.959705 -0.0545689
0.224869 0.959508 -0.0542869
0.235319 0.964419 -0.0544906
0.203711 0.94971 -0.0539544
0.214342 0.954609 -0.054156
0.235418 0.954426 -0.0538523
0.193056 0.944823 -0.0537006
0.214449 0.944613 -0.0535247
0.18241 0.949931 -0.0537065
0.224981 0.949519 -0.0536232
0.18255 0.939938 -0.0531095
0.203839 0.939718 -0.0533259
0.225086 0.939525 -0.0529702
0.23553 0.944437 -0.0531945
0.21456 0.934625 -0.0528674
0.182697 0.929947 -0.0525175
0.225194 0.92954 -0.0523167
0.235634 0.93445 -0.0525289
0.235745 0.924458 -0.0518701
0.160039 0.990115 -0.0556365
0.138838 0.990334 -0.05335
0.170751 0.995002 -0.0563989
0.14923 0.995217 -0.0550638
0.159808 1.0001 -0.0563067
0.138563 1.00033 -0.053937
0.170598 1.005 -0.0569994
0.149026 1.00521 -0.0556734
0.159606 1.0101 -0.0569338
0.138241 1.01032 -0.0546271
0.17039 1.01499 -0.0576444
0.148776 1.01521 -0.0562448
0.159408 1.02008 -0.0575486
0.137974 1.02032 -0.0552403
0.170229 1.02498 -0.0582099
0.14857 1.0252 -0.0568061
0.159177 1.03008 -0.0581361
0.137679 1.03031 -0.0558501
0.169991 1.03497 -0.0588642
0.148348 1.03519 -0.0573213
0.158923 1.04007 -0.0587513
0.13742 1.04031 -0.0564595
0.16978 1.04496 -0.0594687
0.148099 1.04518 -0.0579192
0.158704 1.05006 -0.0593274
0.137191 1.0503 -0.0570255
0.126756 1.04543 -0.055068
0.127068 1.03543 -0.0544507
0.127358 1.02543 -0.0538289
0.127678 1.01543 -0.0531631
0.128051 1.00544 -0.0524577
0.116975 1.04054 -0.0520605
0.128355 0.995437 -0.0518114
0.181737 0.989901 -0.0561712
0.203199 0.98968 -0.0563767
0.224571 0.989481 -0.0561999
0.192319 0.994782 -0.0567827
0.213886 0.994569 -0.0566441
0.23505 0.994381 -0.056396
0.181539 0.999893 -0.0568386
0.203065 0.99967 -0.0569917
0.224465 0.999466 -0.0568378
0.192165 1.00477 -0.0573865
0.213779 1.00456 -0.0572257
0.234964 1.00437 -0.0570186
0.181381 1.00988 -0.0574385
0.181211 1.01987 -0.0580713
0.181045 1.02986 -0.0586896
0.180843 1.03985 -0.0593055
0.180646 1.04984 -0.0599442
0.224378 1.00946 -0.057427
0.20294 1.00966 -0.0575563
0.192003 1.01476 -0.0579996
0.213657 1.01455 -0.0578183
0.234871 1.01436 -0.0576545
0.202791 1.01965 -0.0581904
0.224282 1.01945 -0.0580226
0.191878 1.02475 -0.0585519
0.213534 1.02454 -0.0584088
0.234783 1.02435 -0.0582755
0.202635 1.02964 -0.058807
0.224163 1.02943 -0.058632
0.191694 1.03474 -0.0591843
0.213388 1.03453 -0.0590054
0.234674 1.03434 -0.0588943
0.202467 1.03963 -0.0594472
0.224052 1.03943 -0.0591819
0.191532 1.04474 -0.0597911
0.213255 1.04452 -0.0595708
0.234563 1.04432 -0.0595083
0.202316 1.04962 -0.0600683
0.223918 1.04941 -0.0597961
0.33826 0.913851 -0.0521632
0.358552 0.913777 -0.0521896
0.328089 0.918893 -0.0523944
0.348395 0.918806 -0.0524792
0.368653 0.918738 -0.0525782
0.297599 0.914064 -0.0517169
0.266842 0.919241 -0.0517417
0.287348 0.919113 -0.0520428
0.307781 0.919002 -0.0520616
0.348425 0.908825 -0.0518426
0.368681 0.908758 -0.0519407
0.317971 0.913954 -0.0518891
0.328123 0.908912 -0.0517657
0.388952 0.91868 -0.0526139
0.409105 0.918635 -0.0526914
0.429333 0.918605 -0.0526381
0.44955 0.918576 -0.0526931
0.469721 0.918564 -0.0526469
0.378821 0.913718 -0.0523241
0.419246 0.913629 -0.0523939
0.399053 0.913669 -0.0523169
0.43946 0.913604 -0.0522726
0.459639 0.913578 -0.0524177
0.479797 0.913573 -0.0522636
0.489863 0.918563 -0.0525951
0.41926 0.903651 -0.051754
0.389001 0.908706 -0.0519867
0.40914 0.908661 -0.0520471
0.42935 0.908631 -0.051989
0.459642 0.9036 -0.0517763
0.44956 0.908599 -0.0520551
0.46972 0.908586 -0.0520055
0.489864 0.908582 -0.0519513
0.277073 0.924166 -0.0521729
0.29753 0.92405 -0.0523601
0.287258 0.929096 -0.052669
0.297444 0.934031 -0.0529951
0.245572 0.979302 -0.0554463
0.245661 0.969311 -0.0547981
0.245743 0.959324 -0.0541587
0.297313 0.953998 -0.054248
0.276634 0.984069 -0.0559489
0.297131 0.983952 -0.0561624
0.297185 0.973964 -0.055505
0.266325 0.979138 -0.0555329
0.286921 0.979013 -0.0558108
0.255886 0.984205 -0.0557664
0.286982 0.969026 -0.0551606
0.255969 0.974217 -0.0551198
0.276709 0.974088 -0.0552835
0.27677 0.964097 -0.0546694
0.297254 0.96398 -0.0548785
0.266424 0.969158 -0.0548993
0.266493 0.959174 -0.0542719
0.287053 0.959048 -0.0545463
0.256063 0.964233 -0.0545514
0.287116 0.94906 -0.053922
0.276849 0.954119 -0.0540458
0.256145 0.95425 -0.0539245
0.245835 0.949332 -0.0535143
0.276911 0.944132 -0.0534246
0.297383 0.944015 -0.0536244
0.266583 0.949193 -0.0536425
0.26666 0.939205 -0.0530091
0.287192 0.939077 -0.0533095
0.256249 0.944268 -0.0533101
0.256331 0.934282 -0.0526843
0.276995 0.934152 -0.0528037
0.245968 0.93935 -0.052898
0.24606 0.929365 -0.0522749
0.266752 0.929229 -0.0523746
0.25645 0.924302 -0.0520671
0.338209 0.923835 -0.0528245
0.358508 0.923761 -0.0528483
0.317909 0.923938 -0.0525425
0.328027 0.928874 -0.0530342
0.348345 0.928787 -0.0531208
0.368614 0.928719 -0.0532191
0.307702 0.928984 -0.0526926
0.307395 0.978905 -0.0558346
0.307446 0.968917 -0.0551836
0.307515 0.958938 -0.0545717
0.307571 0.94895 -0.0539465
0.338152 0.933815 -0.0534801
0.358462 0.93374 -0.0535018
0.317836 0.933918 -0.0531946
0.307639 0.938966 -0.0533491
0.327975 0.938854 -0.053696
0.348301 0.938766 -0.053781
0.368581 0.938698 -0.05386
0.338113 0.943797 -0.0541243
0.35843 0.943721 -0.0541494
0.317729 0.953883 -0.054465
0.34826 0.948748 -0.0544129
0.368545 0.94868 -0.0544962
0.338078 0.953785 -0.054746
0.358396 0.953706 -0.0547894
0.327884 0.958823 -0.0549589
0.348224 0.958733 -0.055046
0.368514 0.958665 -0.0551332
0.338029 0.963761 -0.0553931
0.358358 0.963683 -0.0554349
0.348191 0.96871 -0.0556857
0.368487 0.968642 -0.055775
0.337948 0.983728 -0.0566797
0.358292 0.983649 -0.0567213
0.327795 0.978784 -0.0562515
0.348157 0.978694 -0.0563427
0.368459 0.978625 -0.0564353
0.317586 0.983834 -0.0563742
0.317628 0.973846 -0.0557388
0.337989 0.973747 -0.0560309
0.358321 0.973668 -0.0560743
0.327843 0.968803 -0.0556017
0.317679 0.963864 -0.0551203
0.327928 0.94884 -0.0543427
0.317787 0.9439 -0.053842
0.24548 0.989291 -0.0560843
0.28685 0.988998 -0.0564428
0.266248 0.989128 -0.0561688
0.297052 0.993929 -0.0568485
0.255765 0.994183 -0.0564197
0.276561 0.994053 -0.0566082
0.245384 0.999279 -0.0567369
0.26614 0.999104 -0.0568152
0.286779 0.998982 -0.0570842
0.245307 1.00927 -0.0573643
0.245237 1.01925 -0.0579732
0.245148 1.02924 -0.0585988
0.245054 1.03924 -0.0592162
0.244961 1.04922 -0.0598634
0.276465 1.00404 -0.0572357
0.296985 1.00392 -0.0574576
0.255657 1.00417 -0.0570449
0.286699 1.00896 -0.0577082
0.266055 1.00909 -0.0574397
0.255592 1.01416 -0.0576688
0.276395 1.01402 -0.057877
0.296935 1.01391 -0.0580665
0.286642 1.01895 -0.0583258
0.265981 1.01908 -0.0580341
0.255513 1.02415 -0.0582954
0.296847 1.02389 -0.0587008
0.276313 1.02401 -0.0585116
0.286531 1.02893 -0.0589685
0.26585 1.02906 -0.0586521
0.255436 1.03413 -0.0589328
0.27619 1.03399 -0.0591393
0.296769 1.03388 -0.0593279
0.286444 1.03892 -0.0596187
0.265743 1.03905 -0.0592651
0.255357 1.04412 -0.0595716
0.296676 1.04385 -0.0599712
0.276101 1.04397 -0.0597672
0.286345 1.0489 -0.0602563
0.26561 1.04902 -0.0598932
0.307336 0.98889 -0.0564716
0.368434 0.988603 -0.0570798
0.327748 0.988768 -0.056889
0.348129 0.988678 -0.0569706
0.317509 0.993811 -0.0570406
0.337902 0.993711 -0.057312
0.358259 0.993631 -0.0573595
0.307269 0.998874 -0.0571422
0.307206 1.00886 -0.0577682
0.30716 1.01884 -0.0583859
0.307077 1.02882 -0.0590329
0.307003 1.03882 -0.0596764
0.306924 1.04879 -0.0603332
0.327673 0.99875 -0.0575369
0.348078 0.99866 -0.0576223
0.368402 0.99859 -0.057724
0.317461 1.0038 -0.0576629
0.337858 1.00369 -0.0579523
0.358224 1.00361 -0.0580008
0.368372 1.00857 -0.0583781
0.327631 1.00874 -0.0581693
0.348046 1.00865 -0.0582532
0.317413 1.01379 -0.0582854
0.337817 1.01368 -0.0585705
0.35819 1.0136 -0.0586284
0.327572 1.01871 -0.0588047
0.348009 1.01862 -0.0588942
0.36835 1.01855 -0.0590216
0.317345 1.02377 -0.0589257
0.358154 1.02358 -0.0592855
0.33777 1.02366 -0.0592023
0.368318 1.02853 -0.0596903
0.327513 1.0287 -0.059439
0.347961 1.02861 -0.0595358
0.317288 1.03376 -0.0595605
0.337709 1.03365 -0.0598525
0.358115 1.03357 -0.0599228
0.34791 1.03859 -0.0601801
0.368281 1.03852 -0.0603289
0.32746 1.03869 -0.0600621
0.317217 1.04374 -0.0602291
0.358074 1.04354 -0.0606019
0.337656 1.04363 -0.060518
0.327397 1.04867 -0.0607406
0.347868 1.04858 -0.0608413
0.368243 1.0485 -0.0609995
0.37877 0.923699 -0.0529775
0.399021 0.923651 -0.0529729
0.419222 0.923611 -0.0530527
0.388911 0.928664 -0.0532577
0.409075 0.928619 -0.0533397
0.429313 0.928588 -0.0532938
0.378698 0.933677 -0.0536131
0.398975 0.933628 -0.0536192
0.419193 0.933588 -0.0537088
0.409041 0.938593 -0.0539942
0.38888 0.938642 -0.0539123
0.429295 0.938566 -0.0539594
0.429278 0.948545 -0.0546041
[...]
POINT_DATA 20806
VECTORS alpha float
9.20145e-07 -7.25733e-09 5.64935e-08
-2.44582e-07 1.99583e-05 -1.25563e-06
9.44573e-07 -7.00604e-09 5.96342e-08
-2.65991e-07 2.01412e-05 -1.25029e-06
-3.46133e-07 2.00244e-05 -1.34613e-06
-3.24834e-07 2.00445e-05 -1.31814e-06
1.00556e-06 -8.79797e-09 3.80452e-08
-2.96993e-07 2.00646e-05 -1.2852e-06
9.84234e-07 -8.5159e-09 3.89533e-08
-3.91454e-07 1.90313e-05 -1.21001e-06
-3.63299e-07 1.90508e-05 -1.17383e-06
-2.85093e-07 2.00833e-05 -1.24252e-06
9.66366e-07 -8.27953e-09 3.84492e-08
-2.6394e-07 2.01032e-05 -1.24422e-06
9.42367e-07 -7.96747e-09 3.78273e-08
-3.43631e-07 1.90702e-05 -1.14623e-06
-3.44869e-07 1.90892e-05 -1.14971e-06
9.5384e-07 -8.17038e-09 -1.55481e-08
-2.52039e-07 2.0122e-05 -1.24308e-06
9.25071e-07 -7.74392e-09 3.8238e-08
9.33596e-07 -7.90662e-09 -1.38473e-08
-3.46105e-07 1.91093e-05 -1.15692e-06
9.08809e-07 -7.53383e-09 3.85188e-08
9.18055e-07 -7.71305e-09 -1.06278e-08
-2.44454e-07 1.99399e-05 -1.26039e-06
-1.81684e-07 1.87409e-05 -1.21959e-06
9.63745e-07 -7.20343e-09 5.96928e-08
-2.32084e-07 1.99214e-05 -1.24284e-06
1.03902e-06 -8.69621e-09 5.71595e-08
1.01646e-06 -8.43083e-09 5.5981e-08
9.986e-07 -8.18209e-09 5.53075e-08
-2.42091e-07 1.9823e-05 -1.30684e-06
-1.81001e-07 1.86289e-05 -1.23456e-06
1.06356e-06 -8.41558e-09 5.98459e-08
1.08057e-06 -7.8161e-09 4.63023e-08
-1.29654e-07 1.6849e-05 -1.13528e-06
1.04113e-06 -8.12473e-09 6.00661e-08
-2.35074e-07 1.98432e-05 -1.28878e-06
-1.72435e-07 1.86481e-05 -1.2289e-06
-1.21148e-07 1.6867e-05 -1.12998e-06
-2.23306e-07 1.98633e-05 -1.2709e-06
-1.69125e-07 1.86673e-05 -1.23549e-06
1.05797e-06 -7.61135e-09 4.56076e-08
-2.13519e-07 1.98821e-05 -1.25201e-06
1.02299e-06 -7.89531e-09 6.00449e-08
1.04026e-06 -7.38437e-09 4.54953e-08
-1.25228e-07 1.6884e-05 -1.13342e-06
9.99478e-07 -7.62607e-09 5.98356e-08
-1.70245e-07 1.86861e-05 -1.23721e-06
-1.19372e-07 1.6901e-05 -1.1317e-06
-2.17103e-07 1.99017e-05 -1.23912e-06
-1.70341e-07 1.8705e-05 -1.24187e-06
9.74678e-07 -7.92209e-09 5.47313e-08
1.01664e-06 -7.17014e-09 4.45092e-08
9.57185e-07 -7.68171e-09 5.63556e-08
9.81139e-07 -7.40267e-09 6.04005e-08
9.98873e-07 -6.94454e-09 4.46244e-08
-1.23845e-07 1.69185e-05 -1.13532e-06
-1.69246e-07 1.87229e-05 -1.22873e-06
9.39989e-07 -7.48012e-09 5.78415e-08
9.81766e-07 -6.76861e-09 4.4294e-08
-1.18471e-07 1.69348e-05 -1.11247e-06
-1.148e-07 1.69508e-05 -1.11234e-06
1.02369e-06 -9.06989e-09 3.79427e-08
9.69546e-07 -8.38913e-09 -2.00855e-08
-3.39447e-07 2.00037e-05 -1.34041e-06
-4.08446e-07 1.90116e-05 -1.24022e-06
1.04369e-06 -9.33642e-09 3.96398e-08
9.89783e-07 -8.65452e-09 -2.1024e-08
-3.3993e-07 1.99825e-05 -1.33051e-06
-4.06389e-07 1.89908e-05 -1.2311e-06
1.06787e-06 -9.67437e-09 4.1191e-08
1.01403e-06 -8.95946e-09 -2.02117e-08
-3.17825e-07 1.99601e-05 -1.32023e-06
-3.99907e-07 1.89698e-05 -1.19373e-06
1.09593e-06 -1.00302e-08 4.18259e-08
1.04051e-06 -9.32361e-09 -2.10218e-08
-3.17607e-07 1.99374e-05 -1.31152e-06
-3.80575e-07 1.89469e-05 -1.16123e-06
1.11483e-06 -1.03377e-08 4.16609e-08
1.05869e-06 -9.588e-09 -2.13566e-08
-3.26578e-07 1.99154e-05 -1.31745e-06
-3.98471e-07 1.89262e-05 -1.16449e-06
1.14254e-06 -1.0694e-08 4.19563e-08
1.08516e-06 -9.88968e-09 -2.27982e-08
-3.48057e-07 1.98932e-05 -1.32152e-06
-4.10791e-07 1.89041e-05 -1.1799e-06
1.16695e-06 -1.10525e-08 4.07303e-08
1.1081e-06 -1.01925e-08 -2.55181e-08
-3.75973e-07 1.70299e-05 -9.83448e-07
-3.71781e-07 1.70521e-05 -1.00025e-06
-3.56255e-07 1.70719e-05 -9.91799e-07
-3.70814e-07 1.70935e-05 -1.00283e-06
-3.77391e-07 1.71139e-05 -1.03466e-06
9.98262e-07 -8.17281e-09 -1.20346e-07
-3.87799e-07 1.71339e-05 -1.03218e-06
1.05799e-06 -8.98061e-09 5.71163e-08
1.08353e-06 -8.69244e-09 5.96114e-08
1.10042e-06 -8.08467e-09 4.60161e-08
-2.47695e-07 1.98027e-05 -1.29452e-06
-1.8014e-07 1.86091e-05 -1.21812e-06
-1.23733e-07 1.68304e-05 -1.13876e-06
1.0776e-06 -9.25034e-09 5.86389e-08
1.10344e-06 -8.96816e-09 5.91979e-08
1.12019e-06 -8.299e-09 4.60548e-08
-2.40922e-07 1.9782e-05 -1.29435e-06
-1.79365e-07 1.85901e-05 -1.20905e-06
-1.2936e-07 1.68124e-05 -1.141e-06
1.10101e-06 -9.5341e-09 6.00791e-08
1.1297e-06 -9.90205e-09 6.3244e-08
1.14981e-06 -1.02024e-08 6.4824e-08
1.17847e-06 -1.05587e-08 6.65621e-08
1.20387e-06 -1.0918e-08 6.72923e-08
1.14392e-06 -8.5803e-09 4.59109e-08
1.12728e-06 -9.28106e-09 5.88322e-08
-2.30906e-07 1.97607e-05 -1.30827e-06
-1.78605e-07 1.85696e-05 -1.21718e-06
-1.26245e-07 1.67935e-05 -1.14169e-06
1.15591e-06 -9.601e-09 6.07224e-08
1.17158e-06 -8.91905e-09 4.58833e-08
-2.286e-07 1.97385e-05 -1.29829e-06
-1.79452e-07 1.85487e-05 -1.21247e-06
-1.29157e-07 1.67742e-05 -1.13752e-06
1.17584e-06 -9.88119e-09 6.09629e-08
1.19235e-06 -9.14847e-09 4.61936e-08
-2.36321e-07 1.97169e-05 -1.29995e-06
-1.86969e-07 1.85282e-05 -1.22383e-06
-1.3682e-07 1.67552e-05 -1.13041e-06
1.20435e-06 -1.0198e-08 6.20346e-08
1.22089e-06 -9.48749e-09 4.54228e-08
-2.51763e-07 1.96948e-05 -1.29556e-06
-1.94773e-07 1.85064e-05 -1.2288e-06
-1.48344e-07 1.6735e-05 -1.13085e-06
1.22986e-06 -1.05419e-08 6.2867e-08
1.24711e-06 -9.79267e-09 4.54447e-08
-2.43412e-08 8.67287e-06 -5.96714e-07
-2.18314e-08 7.51714e-06 -5.18531e-07
1.05216e-06 -3.3603e-09 2.0299e-08
1.06663e-06 -2.75376e-09 2.07645e-08
1.08008e-06 -2.30446e-09 1.78064e-08
-3.71779e-08 1.14023e-05 -7.59833e-07
9.97921e-07 -5.35263e-09 2.50575e-08
1.01735e-06 -4.67471e-09 2.11641e-08
1.03577e-06 -4.17877e-09 1.65132e-08
1.0492e-06 -2.66919e-09 2.05007e-08
1.06261e-06 -2.2343e-09 1.74409e-08
-2.62231e-08 9.94614e-06 -6.81272e-07
1.03483e-06 -3.23755e-09 2.06763e-08
1.08942e-06 -1.69453e-09 1.37213e-08
1.0991e-06 -1.35905e-09 1.24186e-08
1.10813e-06 -1.223e-09 9.67438e-09
1.11381e-06 -5.15703e-10 1.05851e-08
1.11781e-06 -2.4897e-10 8.56254e-09
-7.65422e-09 6.42339e-06 -4.43592e-07
-5.58201e-09 4.28536e-06 -3.01137e-07
-2.82123e-09 5.35257e-06 -3.74122e-07
-2.15887e-09 3.21593e-06 -2.26988e-07
-1.90972e-09 2.14429e-06 -1.51005e-07
-4.3205e-10 1.07207e-06 -7.5509e-08
1.11867e-06 -2.01255e-10 -2.56834e-09
-5.79388e-09 4.28995e-06 -2.99747e-07
1.07121e-06 -1.61455e-09 1.43464e-08
1.08093e-06 -1.30472e-09 1.27913e-08
1.08986e-06 -1.19344e-09 9.60237e-09
-1.82711e-09 2.14659e-06 -1.50267e-07
1.09556e-06 -4.94139e-10 1.07202e-08
1.09958e-06 -2.51145e-10 8.47646e-09
1.10078e-06 -2.0676e-10 -2.61838e-09
-5.69475e-08 1.30747e-05 -8.67788e-07
-3.80038e-08 1.13906e-05 -7.65503e-07
1.03841e-06 -4.78586e-09 2.20104e-08
-3.73446e-08 1.1379e-05 -7.73497e-07
1.10335e-06 -7.20109e-09 3.63712e-08
1.08114e-06 -6.98547e-09 3.56859e-08
1.06366e-06 -6.79467e-09 3.45275e-08
-3.28232e-08 1.13546e-05 -7.78437e-07
-3.91578e-08 1.29919e-05 -8.95487e-07
-2.8628e-08 1.13166e-05 -7.9202e-07
-2.70158e-08 1.13294e-05 -7.90569e-07
1.12334e-06 -6.28838e-09 2.77538e-08
1.14273e-06 -5.47531e-09 2.43435e-08
-7.26129e-08 1.48781e-05 -1.00338e-06
1.11967e-06 -5.3109e-09 2.37192e-08
-7.03994e-08 1.48942e-05 -9.98147e-07
-3.76947e-08 1.30066e-05 -8.88035e-07
-3.95209e-08 1.30198e-05 -8.85455e-07
-2.86448e-08 1.13415e-05 -7.86034e-07
1.09952e-06 -6.11897e-09 2.70905e-08
1.08037e-06 -5.94731e-09 2.68452e-08
1.10009e-06 -5.18529e-09 2.33823e-08
-7.4666e-08 1.49095e-05 -9.94269e-07
1.07673e-06 -5.03651e-09 2.32564e-08
-4.27782e-08 1.30339e-05 -8.83108e-07
-7.73519e-08 1.49258e-05 -9.91197e-07
1.04071e-06 -6.5783e-09 3.37045e-08
-4.62201e-08 1.30479e-05 -8.7571e-07
-3.16653e-08 1.13667e-05 -7.73646e-07
1.05638e-06 -5.79701e-09 2.64162e-08
1.03754e-06 -5.62483e-09 2.62237e-08
1.05736e-06 -4.90606e-09 2.27567e-08
-8.1327e-08 1.49412e-05 -9.89447e-07
-8.26353e-08 1.49562e-05 -9.86294e-07
-5.05865e-08 1.30614e-05 -8.74259e-07
1.02134e-06 -6.37302e-09 3.36788e-08
1.00309e-06 -6.18135e-09 3.3586e-08
1.01865e-06 -5.4908e-09 2.59531e-08
-8.54207e-08 1.49707e-05 -9.8138e-07
-2.44524e-08 8.66385e-06 -6.00275e-07
-2.2158e-08 7.50919e-06 -5.21739e-07
-2.70217e-08 9.93582e-06 -6.86795e-07
1.07422e-06 -3.44129e-09 2.07791e-08
1.08891e-06 -2.81832e-09 2.15814e-08
1.10244e-06 -2.34923e-09 1.87202e-08
1.05791e-06 -4.29974e-09 1.71139e-08
1.16269e-06 -4.85268e-09 2.13114e-08
1.13943e-06 -4.7173e-09 2.04637e-08
1.1197e-06 -4.62271e-09 1.94444e-08
1.09629e-06 -4.49285e-09 1.88861e-08
-2.23355e-08 8.65488e-06 -5.99539e-07
-2.08507e-08 7.50128e-06 -5.21315e-07
-2.53874e-08 9.92558e-06 -6.87365e-07
1.07739e-06 -4.39649e-09 1.80639e-08
1.09446e-06 -3.54179e-09 2.10703e-08
1.10952e-06 -2.9093e-09 2.18032e-08
1.12331e-06 -2.4392e-09 1.86398e-08
-1.70384e-08 8.64536e-06 -5.97447e-07
-1.68587e-08 7.49285e-06 -5.21233e-07
-1.96058e-08 9.90414e-06 -6.84987e-07
1.12987e-06 -2.98776e-09 2.19746e-08
1.14376e-06 -2.49607e-09 1.91303e-08
-1.65395e-08 8.63572e-06 -5.98051e-07
-1.67329e-08 7.48443e-06 -5.20863e-07
1.13881e-06 -3.77263e-09 2.14787e-08
1.1539e-06 -3.09092e-09 2.22804e-08
1.16794e-06 -2.58e-09 1.95947e-08
-1.51293e-08 8.62591e-06 -6.01447e-07
-1.51822e-08 7.47585e-06 -5.23425e-07
1.17545e-06 -3.16875e-09 2.27041e-08
1.18979e-06 -2.62863e-09 2.03747e-08
-1.12637e-08 8.60626e-06 -6.06294e-07
-1.25394e-08 7.45865e-06 -5.25885e-07
1.18379e-06 -4.00281e-09 2.2365e-08
1.19923e-06 -3.26635e-09 2.32393e-08
1.21375e-06 -2.71276e-09 2.09454e-08
-1.47556e-08 9.8708e-06 -6.97897e-07
-1.37036e-08 9.88192e-06 -6.93734e-07
-1.22107e-08 8.61612e-06 -6.04897e-07
-1.272e-08 7.4673e-06 -5.24992e-07
1.15977e-06 -3.88694e-09 2.19056e-08
-1.54298e-08 9.89251e-06 -6.9063e-07
1.1146e-06 -3.64319e-09 2.15225e-08
-1.86082e-08 9.91468e-06 -6.85989e-07
1.12256e-06 -7.38589e-09 3.64938e-08
1.16338e-06 -5.60991e-09 2.4898e-08
1.14349e-06 -6.48378e-09 2.79096e-08
-2.84225e-08 1.13034e-05 -7.92374e-07
-7.07409e-08 1.48617e-05 -1.00363e-06
-4.02257e-08 1.29773e-05 -9.00049e-07
1.14187e-06 -7.59994e-09 3.66355e-08
1.16452e-06 -6.64501e-09 2.8523e-08
1.18389e-06 -5.75095e-09 2.55357e-08
1.16609e-06 -7.79851e-09 3.71986e-08
1.19341e-06 -8.10643e-09 3.74564e-08
1.21427e-06 -8.2964e-09 3.82745e-08
1.2424e-06 -8.55815e-09 3.83319e-08
1.26861e-06 -8.80725e-09 3.85212e-08
-3.88314e-08 1.29626e-05 -8.97023e-07
-2.79421e-08 1.12907e-05 -7.85887e-07
-7.3421e-08 1.48449e-05 -1.00294e-06
1.20908e-06 -5.88114e-09 2.57213e-08
1.18916e-06 -6.82933e-09 2.84996e-08
-6.84114e-08 1.48277e-05 -1.00729e-06
-3.95734e-08 1.29467e-05 -8.96973e-07
-2.82403e-08 1.12768e-05 -7.88379e-07
1.23658e-06 -6.09383e-09 2.53271e-08
1.21663e-06 -7.08478e-09 2.76492e-08
-6.94313e-08 1.48104e-05 -1.00625e-06
-2.61893e-08 1.12628e-05 -7.79977e-07
-3.95826e-08 1.29312e-05 -8.92021e-07
1.25896e-06 -6.19592e-09 2.51554e-08
1.23874e-06 -7.2394e-09 2.72964e-08
-7.22881e-08 1.4793e-05 -1.00355e-06
-4.01016e-08 1.29154e-05 -8.85208e-07
-2.93301e-08 1.12488e-05 -7.81139e-07
1.2877e-06 -6.33974e-09 2.51521e-08
1.26749e-06 -7.4677e-09 2.70426e-08
-7.69459e-08 1.47745e-05 -1.00031e-06
-2.81171e-08 1.12342e-05 -7.75515e-07
-3.97722e-08 1.28987e-05 -8.78804e-07
1.3151e-06 -6.50898e-09 2.45532e-08
1.29482e-06 -7.72122e-09 2.63602e-08
1.18362e-06 -4.95011e-09 2.21868e-08
1.23625e-06 -2.78125e-09 2.13667e-08
1.20531e-06 -4.14561e-09 2.26771e-08
1.22099e-06 -3.39113e-09 2.32697e-08
-1.28169e-08 9.85907e-06 -6.96274e-07
-1.22647e-08 8.59586e-06 -6.0524e-07
-1.37439e-08 7.44954e-06 -5.24968e-07
1.2046e-06 -5.05285e-09 2.34522e-08
1.22996e-06 -5.16142e-09 2.38132e-08
1.25778e-06 -5.35561e-09 2.33664e-08
1.28076e-06 -5.45251e-09 2.35677e-08
1.30985e-06 -5.60354e-09 2.38189e-08
1.3377e-06 -5.75801e-09 2.37619e-08
1.22729e-06 -4.25143e-09 2.30798e-08
1.24318e-06 -3.47238e-09 2.38557e-08
1.25857e-06 -2.89337e-09 2.18537e-08
-1.12521e-08 9.84718e-06 -6.94585e-07
-8.57067e-09 8.58569e-06 -6.02711e-07
-1.13587e-08 7.44057e-06 -5.22883e-07
1.28508e-06 -2.96211e-09 2.22549e-08
1.2532e-06 -4.41303e-09 2.31487e-08
1.2691e-06 -3.59061e-09 2.37893e-08
-1.41559e-08 9.835e-06 -6.99358e-07
-1.08741e-08 8.57499e-06 -6.05444e-07
-1.24918e-08 7.43129e-06 -5.23438e-07
1.28244e-06 -4.59053e-09 2.24907e-08
1.29844e-06 -3.70494e-09 2.35023e-08
1.31483e-06 -3.10611e-09 2.23096e-08
-1.31363e-08 9.82242e-06 -6.94564e-07
-1.1356e-08 7.42182e-06 -5.19621e-07
-1.11278e-08 8.56406e-06 -6.02629e-07
1.33955e-06 -3.18048e-09 2.26581e-08
1.30568e-06 -4.75186e-09 2.22611e-08
1.32208e-06 -3.82303e-09 2.32374e-08
-1.62808e-08 9.80983e-06 -6.92354e-07
-1.26829e-08 8.5529e-06 -6.0398e-07
-1.36917e-08 7.41207e-06 -5.19846e-07
1.35237e-06 -3.91734e-09 2.3305e-08
1.36959e-06 -3.30501e-09 2.27164e-08
1.33542e-06 -4.93315e-09 2.2063e-08
-1.71995e-08 9.79661e-06 -6.90587e-07
-1.4244e-08 7.40181e-06 -5.20395e-07
-1.44471e-08 8.54113e-06 -6.04982e-07
1.36414e-06 -5.07524e-09 2.22368e-08
1.38077e-06 -4.06142e-09 2.33389e-08
1.39837e-06 -3.43607e-09 2.26972e-08
-8.21587e-09 6.41652e-06 -4.45373e-07
-2.59114e-09 5.34686e-06 -3.75455e-07
-5.29968e-09 4.28078e-06 -3.01955e-07
1.11203e-06 -1.73424e-09 1.39702e-08
1.12177e-06 -1.39511e-09 1.249e-08
1.13103e-06 -1.26705e-09 9.9526e-09
-7.36813e-09 6.40971e-06 -4.44723e-07
-1.49793e-09 5.34118e-06 -3.75097e-07
-4.55288e-09 4.27622e-06 -3.01028e-07
1.14375e-06 -1.4383e-09 1.22713e-08
1.13339e-06 -1.78306e-09 1.39169e-08
1.15293e-06 -1.31285e-09 1.00128e-08
1.17426e-06 -1.34712e-09 1.00521e-08
-5.52918e-09 6.40237e-06 -4.46089e-07
4.42337e-11 5.33506e-06 -3.74658e-07
-3.30405e-09 4.27132e-06 -3.00654e-07
-6.87728e-09 6.39526e-06 -4.47457e-07
4.99463e-11 5.32922e-06 -3.74066e-07
-3.61221e-09 4.26661e-06 -3.01051e-07
1.15453e-06 -1.83696e-09 1.34598e-08
1.16456e-06 -1.48121e-09 1.22073e-08
1.17901e-06 -1.88948e-09 1.32372e-08
1.18911e-06 -1.52635e-09 1.20946e-08
1.199e-06 -1.38385e-09 9.9775e-09
-5.59278e-09 6.38761e-06 -4.49787e-07
1.45074e-09 5.32287e-06 -3.74217e-07
-2.838e-09 4.2615e-06 -3.01512e-07
1.20155e-06 -1.94176e-09 1.30757e-08
1.21183e-06 -1.57095e-09 1.20293e-08
1.22189e-06 -1.41399e-09 9.97808e-09
-5.72181e-09 6.38051e-06 -4.51599e-07
2.17393e-09 5.31704e-06 -3.73888e-07
-2.57521e-09 4.25682e-06 -3.01394e-07
-4.46408e-09 6.37271e-06 -4.54435e-07
3.33025e-09 5.31054e-06 -3.76382e-07
-2.00097e-09 4.25159e-06 -3.02415e-07
1.22565e-06 -1.99291e-09 1.29198e-08
1.236e-06 -1.61427e-09 1.19123e-08
1.24616e-06 -1.45654e-09 9.81742e-09
-2.39232e-09 3.21248e-06 -2.27504e-07
-1.85646e-09 2.14199e-06 -1.51307e-07
-4.8294e-10 1.07092e-06 -7.56654e-08
1.13677e-06 -5.37941e-10 1.07684e-08
1.14083e-06 -2.66962e-10 8.79026e-09
1.14195e-06 -1.9119e-10 -2.5101e-09
-2.26171e-09 3.20903e-06 -2.2717e-07
-1.6995e-09 2.13969e-06 -1.51118e-07
-4.71492e-10 1.06977e-06 -7.55565e-08
1.15918e-06 -5.61255e-10 1.08487e-08
1.16304e-06 -2.87693e-10 8.93507e-09
1.1642e-06 -2.04615e-10 -2.55077e-09
1.1802e-06 -5.82196e-10 1.09779e-08
1.18439e-06 -2.83202e-10 9.13137e-09
1.1855e-06 -1.73841e-10 -2.30724e-09
-1.65557e-09 3.20532e-06 -2.27219e-07
-1.39946e-09 2.13721e-06 -1.50895e-07
-4.14241e-10 1.06853e-06 -7.54191e-08
-2.28048e-09 3.20175e-06 -2.27726e-07
-1.55628e-09 2.13485e-06 -1.51052e-07
-5.64342e-10 1.06735e-06 -7.55024e-08
1.20503e-06 -5.90076e-10 1.11905e-08
1.20925e-06 -2.86454e-10 9.32486e-09
1.21036e-06 -1.71771e-10 -2.33189e-09
-1.81667e-09 3.19789e-06 -2.28214e-07
-1.23375e-09 2.13227e-06 -1.5128e-07
-4.81442e-10 1.06606e-06 -7.56199e-08
1.22805e-06 -6.17664e-10 1.14114e-08
1.23233e-06 -2.94854e-10 9.57983e-09
1.23343e-06 -1.59564e-10 -2.16042e-09
-1.24995e-09 2.1299e-06 -1.51235e-07
-1.57472e-09 3.19038e-06 -2.28873e-07
-1.03662e-09 2.12727e-06 -1.51479e-07
-5.70257e-10 1.06355e-06 -7.57347e-08
1.25237e-06 -6.34819e-10 1.15621e-08
1.25669e-06 -3.05164e-10 9.63679e-09
1.25779e-06 -1.62794e-10 -2.38847e-09
-1.51015e-09 3.19416e-06 -2.2855e-07
-4.892e-10 1.06481e-06 -7.57013e-08
1.24873e-06 -2.07269e-09 1.21696e-08
1.25944e-06 -1.67619e-09 1.14825e-08
1.26988e-06 -1.48125e-09 9.72182e-09
-1.88371e-09 4.24634e-06 -3.02448e-07
-4.86809e-09 6.36483e-06 -4.54231e-07
3.07482e-09 5.304e-06 -3.7643e-07
1.27101e-06 -2.13389e-09 1.22027e-08
1.28189e-06 -1.71388e-09 1.14593e-08
1.29269e-06 -1.53096e-09 9.91084e-09
-3.47825e-09 6.35709e-06 -4.51231e-07
4.4261e-09 5.2975e-06 -3.75132e-07
-1.57282e-09 4.24108e-06 -3.02062e-07
1.29839e-06 -2.22641e-09 1.19387e-08
1.30946e-06 -1.78624e-09 1.13315e-08
1.32038e-06 -1.58211e-09 9.8322e-09
-4.2777e-09 6.34908e-06 -4.51161e-07
-1.40196e-09 4.23568e-06 -3.02073e-07
4.41503e-09 5.29079e-06 -3.75793e-07
1.3282e-06 -2.32311e-09 1.15975e-08
1.3396e-06 -1.86745e-09 1.12398e-08
1.35074e-06 -1.63088e-09 9.89716e-09
-3.67255e-09 6.34085e-06 -4.48455e-07
4.97837e-09 5.28389e-06 -3.74446e-07
-1.29359e-09 4.23013e-06 -3.01371e-07
1.36512e-06 -1.91012e-09 1.12866e-08
1.37656e-06 -1.65746e-09 1.01055e-08
1.3527e-06 -2.39445e-09 1.15609e-08
-5.81087e-09 6.33242e-06 -4.47618e-07
4.37742e-09 5.27686e-06 -3.74303e-07
-1.69654e-09 4.22447e-06 -3.01149e-07
1.38366e-06 -2.49645e-09 1.17866e-08
1.39529e-06 -1.95602e-09 1.13589e-08
1.40687e-06 -1.68747e-09 1.02747e-08
-6.43801e-09 6.3236e-06 -4.46259e-07
4.50128e-09 5.26944e-06 -3.74434e-07
-1.71791e-09 4.21852e-06 -3.01087e-07
1.42553e-06 -2.01451e-09 1.15253e-08
1.43741e-06 -1.72679e-09 1.04995e-08
1.413e-06 -2.58809e-09 1.19296e-08
1.2763e-06 -6.53312e-10 1.17598e-08
1.28075e-06 -3.12832e-10 9.73815e-09
1.2819e-06 -1.53299e-10 -2.2917e-09
-1.01134e-09 2.12462e-06 -1.51664e-07
-1.82218e-09 3.18643e-06 -2.28893e-07
-6.49272e-10 1.06223e-06 -7.58295e-08
1.29924e-06 -6.87587e-10 1.17737e-08
1.30385e-06 -3.34292e-10 1.0017e-08
1.30507e-06 -1.60979e-10 -2.26816e-09
-1.45546e-09 3.18244e-06 -2.28491e-07
-1.03236e-09 2.12197e-06 -1.51165e-07
-7.044e-10 1.06088e-06 -7.55161e-08
1.32708e-06 -6.91084e-10 1.21911e-08
1.33173e-06 -3.32977e-10 1.02385e-08
1.33291e-06 -1.51362e-10 -2.21187e-09
-1.62428e-09 3.17837e-06 -2.28577e-07
-9.32537e-10 2.11923e-06 -1.51251e-07
-7.70173e-10 1.05952e-06 -7.56087e-08
1.35769e-06 -7.26634e-10 1.25289e-08
1.36248e-06 -3.61713e-10 1.04315e-08
1.36373e-06 -1.63859e-10 -2.03538e-09
-1.50942e-09 3.17419e-06 -2.27551e-07
-1.07196e-09 2.11644e-06 -1.50887e-07
-8.49082e-10 1.05811e-06 -7.53457e-08
1.38378e-06 -7.40189e-10 1.28032e-08
1.38871e-06 -3.62786e-10 1.07661e-08
1.38942e-06 -1.67021e-10 -1.90318e-09
-1.88312e-09 3.16993e-06 -2.2739e-07
-1.27284e-09 2.11358e-06 -1.50874e-07
-9.9926e-10 1.05668e-06 -7.53206e-08
1.41422e-06 -7.61322e-10 1.29462e-08
1.41922e-06 -3.81885e-10 1.10399e-08
1.42051e-06 -1.51689e-10 -1.77314e-09
-2.043e-09 3.16545e-06 -2.27341e-07
-1.31388e-09 2.11058e-06 -1.50771e-07
-1.08352e-09 1.05518e-06 -7.5254e-08
1.44504e-06 -7.84905e-10 1.34011e-08
1.44953e-06 -4.07746e-10 1.13625e-08
1.45088e-06 -1.617e-10 -1.6505e-09
4.16283e-14 1.03924e-10 -7.4476e-12
1.1277e-13 1.04433e-10 -7.47973e-12
1.11781e-06 2.32821e-10 -9.10851e-09
1.11378e-06 5.10435e-10 -1.06425e-08
1.10818e-06 1.23165e-09 -9.83526e-09
1.09911e-06 1.35349e-09 -1.24893e-08
-1.2906e-14 1.11488e-10 -7.88182e-12
-4.39614e-10 -1.07184e-06 7.57303e-08
-2.01323e-09 -2.14405e-06 1.51459e-07
-2.03375e-09 -3.21567e-06 2.27932e-07
1.11862e-06 1.71987e-10 2.19044e-09
-5.62242e-09 -4.28508e-06 3.0257e-07
-2.75074e-09 -5.35235e-06 3.7399e-07
-7.58375e-09 -6.42317e-06 4.43441e-07
1.089e-06 1.68403e-09 -1.41178e-08
-1.92042e-09 -2.14637e-06 1.50553e-07
1.10071e-06 1.79298e-10 2.2223e-09
1.09957e-06 2.36822e-10 -9.04301e-09
1.09552e-06 4.8833e-10 -1.07782e-08
-5.87136e-09 -4.28971e-06 3.00605e-07
1.0899e-06 1.20144e-09 -9.76529e-09
1.08094e-06 1.29925e-09 -1.28438e-08
1.07122e-06 1.61191e-09 -1.43833e-08
-2.17691e-08 -7.51695e-06 5.18253e-07
-2.42931e-08 -8.67269e-06 5.96438e-07
1.08009e-06 2.30302e-09 -1.78824e-08
1.06663e-06 2.7553e-09 -2.08173e-08
1.05218e-06 3.36054e-09 -2.03923e-08
1.06261e-06 2.23287e-09 -1.74781e-08
1.0492e-06 2.6708e-09 -2.05208e-08
1.03485e-06 3.23741e-09 -2.07633e-08
-2.61024e-08 -9.94599e-06 6.80879e-07
1.03578e-06 4.177e-09 -1.65783e-08
-3.70798e-08 -1.14022e-05 7.59508e-07
1.01734e-06 4.67112e-09 -2.12101e-08
9.97904e-07 5.34652e-09 -2.5088e-08
-2.10683e-09 -2.14184e-06 1.51811e-07
1.6481e-15 1.11466e-10 -7.91006e-12
-4.89294e-10 -1.07069e-06 7.59378e-08
-2.32895e-09 -3.21224e-06 2.28575e-07
1.14191e-06 1.69001e-10 2.22086e-09
1.14083e-06 2.53674e-10 -9.20126e-09
1.13675e-06 5.30789e-10 -1.09185e-08
9.1308e-15 1.11722e-10 -7.92197e-12