# vtk DataFile Version 3.0
vtk output
ASCII
DATASET POLYDATA
POINTS 4343 float
0.189958 0.220286 -0.0116842
0.209988 0.220209 -0.0115028
0.410062 0.220239 -0.011376
0.430044 0.220236 -0.0113772
0.450049 0.220216 -0.0113729
0.470032 0.220184 -0.0113471
0.490015 0.220159 -0.011327
0.169964 0.220291 -0.0112165
0.199975 0.215257 -0.0112846
0.230015 0.220135 -0.0114008
0.250067 0.220388 -0.0113208
0.270055 0.220324 -0.0112949
0.290033 0.220273 -0.0113038
0.310003 0.220235 -0.0113414
0.330048 0.22024 -0.0113794
0.350018 0.220179 -0.0113681
0.369979 0.220131 -0.0113661
0.39008 0.220288 -0.0113994
0.179984 0.21526 -0.0109153
0.149937 0.220383 -0.0110627
0.18996 0.210288 -0.0111314
0.209987 0.210194 -0.0109006
0.220003 0.215189 -0.0111279
0.240023 0.215091 -0.0110723
0.260061 0.215354 -0.0109688
0.280043 0.215301 -0.0109591
0.300014 0.215258 -0.0109848
0.320057 0.215281 -0.0110623
0.340029 0.215216 -0.0110501
0.359991 0.215159 -0.011052
0.380088 0.215305 -0.0110956
0.400063 0.215291 -0.0110831
0.42004 0.215283 -0.0110802
0.440044 0.215273 -0.0111025
0.460023 0.215238 -0.0110793
0.480002 0.215206 -0.0110688
0.16997 0.210262 -0.0105856
0.139926 0.215408 -0.0105921
0.159957 0.215349 -0.0108378
0.129913 0.220477 -0.0107249
0.189956 0.200242 -0.0105861
0.199973 0.205241 -0.0107219
0.230012 0.210124 -0.0108067
0.250064 0.210361 -0.0107145
0.27005 0.210304 -0.010677
0.290026 0.210253 -0.0106804
0.309992 0.210211 -0.0107184
0.330039 0.210224 -0.0107747
0.350005 0.210165 -0.0107745
0.369961 0.210113 -0.0107905
0.39007 0.210274 -0.0108267
0.410045 0.210263 -0.0108103
0.430021 0.210256 -0.0108051
0.450025 0.210226 -0.010825
0.470002 0.210194 -0.0108191
0.489981 0.210163 -0.0108277
0.810042 0.220284 -0.0116784
0.529968 0.220185 -0.0113449
0.549951 0.220217 -0.0113721
0.569956 0.22024 -0.0113777
0.589938 0.220242 -0.0113789
0.609919 0.220255 -0.0113832
0.790012 0.220207 -0.0114997
0.509997 0.220188 -0.0113548
0.630021 0.220134 -0.011366
0.649982 0.220182 -0.0113694
0.669952 0.220243 -0.0113813
0.689997 0.220236 -0.0113455
0.709967 0.220274 -0.0113061
0.729945 0.220325 -0.0112946
0.749933 0.220389 -0.0113175
0.800025 0.215255 -0.011281
0.769985 0.220132 -0.0114007
0.830036 0.220287 -0.0112143
0.500019 0.215176 -0.0110664
0.519998 0.215206 -0.0110661
0.539977 0.215239 -0.0110778
0.559956 0.215274 -0.0111023
0.57996 0.215286 -0.011081
0.599937 0.215294 -0.011086
0.619912 0.215308 -0.0111004
0.640009 0.215162 -0.0110516
0.659972 0.215218 -0.0110504
0.679944 0.215284 -0.0110626
0.699986 0.215259 -0.010987
0.719958 0.215302 -0.0109594
0.739939 0.215356 -0.0109668
0.790013 0.210192 -0.0108987
0.81004 0.210285 -0.0111273
0.759977 0.215089 -0.0110741
0.779997 0.215186 -0.0111268
0.820016 0.215256 -0.0109149
0.850063 0.220379 -0.0110606
0.500029 0.205116 -0.0105624
0.51002 0.210163 -0.0108246
0.529998 0.210195 -0.010817
0.549976 0.210226 -0.0108241
0.569979 0.210259 -0.0108047
0.589955 0.210266 -0.0108119
0.609931 0.210277 -0.0108301
0.630039 0.210117 -0.0107885
0.649995 0.210168 -0.0107737
0.669961 0.210227 -0.0107745
0.690008 0.210212 -0.0107204
0.709974 0.210255 -0.0106811
0.72995 0.210305 -0.0106757
0.749936 0.210363 -0.0107108
0.800027 0.205239 -0.0107195
0.769988 0.210122 -0.0108073
0.83003 0.210258 -0.0105855
0.840043 0.215346 -0.0108369
0.860074 0.215404 -0.0105912
0.870087 0.220472 -0.0107234
0.119854 0.245094 -0.011734
0.119805 0.255144 -0.0124667
0.109776 0.260171 -0.0124262
0.119763 0.265204 -0.0132323
0.10973 0.27025 -0.0131492
0.119723 0.275321 -0.0139626
0.0997084 0.275261 -0.0129494
0.109694 0.280378 -0.0138253
0.119694 0.285506 -0.0146691
0.0996759 0.285383 -0.0135611
0.0897014 0.280269 -0.0125787
0.0797191 0.285285 -0.012028
0.0997517 0.265195 -0.012274
0.0897456 0.270221 -0.01195
0.0797673 0.275244 -0.0114819
0.109829 0.250139 -0.0116796
0.0998096 0.255185 -0.011562
0.089808 0.260224 -0.0112836
0.0697993 0.280291 -0.0108034
0.109884 0.240131 -0.0109667
0.0798166 0.265244 -0.0108886
0.119916 0.235109 -0.0109958
0.0998745 0.24516 -0.0109024
0.0898698 0.250214 -0.0106254
0.059798 0.305326 -0.0107671
0.0596852 0.315427 -0.0114218
0.0596289 0.325605 -0.0118527
0.0497119 0.330326 -0.010784
0.0595978 0.33559 -0.0122269
0.0496661 0.340506 -0.0109798
0.0595761 0.345586 -0.0124651
0.049805 0.320282 -0.010388
0.109654 0.29053 -0.0145491
0.0896546 0.290394 -0.0131913
0.0697468 0.290328 -0.0113339
0.11964 0.295514 -0.0155016
0.0996219 0.295541 -0.0142828
0.0796513 0.295386 -0.0126566
0.1096 0.300536 -0.0153235
0.089607 0.300558 -0.013817
0.0696876 0.300433 -0.0118313
0.119585 0.30553 -0.0163651
0.0995671 0.30555 -0.0150213
0.0796012 0.30556 -0.0131919
0.109545 0.31057 -0.0161491
0.0895567 0.310577 -0.0144833
0.0696267 0.310567 -0.0123312
0.119535 0.315586 -0.0171475
0.0995219 0.31559 -0.0157124
0.0795621 0.315577 -0.0137499
0.109502 0.320612 -0.0168077
0.0895149 0.320596 -0.0150844
0.0695863 0.320581 -0.0128427
0.119496 0.325661 -0.0177772
0.0994801 0.32563 -0.0163115
0.0795228 0.325595 -0.0142811
0.109462 0.330684 -0.0173782
0.0894753 0.330636 -0.0155836
0.0695509 0.330594 -0.0132944
0.119459 0.335747 -0.0183389
0.0994415 0.335694 -0.0167977
0.0794851 0.335626 -0.0147237
0.109432 0.340793 -0.0177908
0.0894432 0.340701 -0.0159661
0.0695184 0.340603 -0.0136298
0.119437 0.345894 -0.0186538
0.0994153 0.34579 -0.017111
0.0794601 0.345677 -0.0149787
0.159936 0.225352 -0.0115233
0.179976 0.225288 -0.0116117
0.139904 0.225441 -0.0112781
0.149903 0.230387 -0.0118247
0.16995 0.230322 -0.0119841
0.129865 0.230476 -0.011465
0.159909 0.235351 -0.0123408
0.17996 0.235291 -0.0124219
0.139863 0.235438 -0.0120977
0.149866 0.240378 -0.0127051
0.169924 0.240313 -0.0128741
0.129816 0.240468 -0.0123354
0.159872 0.245342 -0.0133187
0.179935 0.24528 -0.0134094
0.139813 0.245418 -0.0130569
0.149827 0.25035 -0.0135677
0.169895 0.250301 -0.0137465
0.129763 0.250416 -0.0132023
0.139774 0.255382 -0.0138158
0.159847 0.255347 -0.0141036
0.179918 0.25531 -0.0142
0.129719 0.26038 -0.0139474
0.149797 0.260365 -0.0143615
0.169874 0.260344 -0.014547
0.179897 0.265435 -0.0149642
0.13974 0.265405 -0.0145776
0.159821 0.265402 -0.0148896
0.169854 0.270515 -0.0152634
0.129688 0.270424 -0.0146692
0.149771 0.270444 -0.0151195
0.179882 0.275611 -0.0157669
0.139716 0.275504 -0.0152956
0.159801 0.275529 -0.0156582
0.169836 0.280615 -0.0160922
0.149754 0.280608 -0.0158191
0.129661 0.280505 -0.0154432
0.179863 0.285644 -0.0165731
0.139701 0.28562 -0.0159711
0.159786 0.285654 -0.0163797
0.199973 0.225279 -0.0119792
0.220008 0.225184 -0.0117668
0.240035 0.225101 -0.0117087
0.189939 0.230302 -0.012507
0.209994 0.230223 -0.0122787
0.23003 0.230136 -0.0120895
0.199961 0.235275 -0.0128438
0.220018 0.235188 -0.0126288
0.24005 0.23511 -0.012458
0.189908 0.240324 -0.0134718
0.209988 0.240222 -0.0132366
0.230038 0.240141 -0.0130045
0.199937 0.245292 -0.0139394
0.22001 0.245199 -0.0136794
0.240053 0.245114 -0.0135216
0.189872 0.250337 -0.0145269
0.209974 0.250245 -0.0142126
0.230038 0.250178 -0.0139662
0.199918 0.255318 -0.0148464
0.22001 0.255244 -0.0145454
0.240058 0.255193 -0.0143298
0.189837 0.260398 -0.0154579
0.209964 0.260328 -0.0151005
0.230041 0.260274 -0.0148343
0.199896 0.265441 -0.0157535
0.220006 0.265384 -0.01543
0.240062 0.265339 -0.0152094
0.1898 0.270576 -0.0163642
0.209952 0.270528 -0.0159777
0.230042 0.270484 -0.0156994
0.199871 0.275696 -0.0166549
0.220002 0.275652 -0.016315
0.240065 0.275607 -0.0160927
0.189756 0.280767 -0.0173948
0.209935 0.280719 -0.016973
0.23004 0.280667 -0.0166638
0.240063 0.285678 -0.0170066
0.249996 0.250474 -0.0138168
0.249998 0.270656 -0.0155636
0.149719 0.290673 -0.0165975
0.169807 0.290693 -0.0168989
0.129628 0.29064 -0.0160782
0.179827 0.295736 -0.0172616
0.159735 0.295746 -0.0170523
0.139635 0.295733 -0.0166497
0.149664 0.300762 -0.017187
0.169767 0.300775 -0.0175147
0.129556 0.300736 -0.016654
0.1597 0.305808 -0.0176662
0.179801 0.305801 -0.0179326
0.139588 0.305802 -0.0172421
0.149626 0.310836 -0.0178487
0.169737 0.310846 -0.0182274
0.12951 0.310815 -0.0172542
0.159666 0.31589 -0.0184432
0.179773 0.315895 -0.0187524
0.139548 0.315874 -0.0179579
0.149591 0.320922 -0.018554
0.169706 0.320948 -0.0189813
0.129469 0.320885 -0.0178925
0.159633 0.325997 -0.0191425
0.179744 0.326022 -0.0194724
0.139512 0.325955 -0.0185935
0.169677 0.331084 -0.0196316
0.129432 0.330962 -0.0184713
0.149554 0.331029 -0.0192347
0.159602 0.336121 -0.0197544
0.179715 0.336175 -0.0201028
0.139478 0.336049 -0.0191517
0.169644 0.341223 -0.020236
0.129398 0.341044 -0.0189644
0.149523 0.341141 -0.0197625
0.179685 0.346339 -0.02063
0.139447 0.346146 -0.0196126
0.15957 0.346245 -0.0202668
0.199831 0.285799 -0.0175611
0.219983 0.285744 -0.0171858
0.1897 0.290887 -0.0180794
0.209902 0.290839 -0.0176456
0.230023 0.290778 -0.0173164
0.240051 0.295806 -0.0173996
0.199794 0.295965 -0.0180953
0.219963 0.295898 -0.0177097
0.189656 0.301053 -0.0185632
0.209876 0.300991 -0.0181229
0.23001 0.300908 -0.0177844
0.240041 0.305878 -0.0178114
0.199764 0.306077 -0.0185239
0.219946 0.305988 -0.0181437
0.189626 0.311159 -0.0191143
0.209858 0.311082 -0.0187153
0.229998 0.310984 -0.0183904
0.199742 0.316171 -0.0192884
0.219932 0.316085 -0.0189448
0.240027 0.315978 -0.0186596
0.1896 0.321249 -0.0198216
0.209841 0.321179 -0.0194725
0.229985 0.321091 -0.0191675
0.199721 0.326267 -0.0200259
0.219917 0.326193 -0.0196974
0.240014 0.326102 -0.0194079
0.189572 0.331338 -0.0205484
0.209824 0.331285 -0.020199
0.229972 0.331217 -0.0198815
0.199701 0.336391 -0.020689
0.219905 0.336345 -0.0203562
0.240002 0.336284 -0.0200596
0.18955 0.341484 -0.0211335
0.209811 0.341466 -0.0207802
0.229962 0.341432 -0.0204661
0.19969 0.346565 -0.0211656
0.219899 0.346558 -0.0208286
0.239994 0.346535 -0.0205376
0.249971 0.341605 -0.0203975
0.24998 0.33148 -0.0198247
0.249991 0.311221 -0.0183044
0.249987 0.32136 -0.0191161
0.249992 0.290878 -0.0173728
0.0496286 0.35056 -0.0110519
0.109391 0.350903 -0.0180138
0.0893994 0.350777 -0.0161813
0.0694756 0.350642 -0.0137969
0.0595217 0.355624 -0.0124636
0.0794042 0.355746 -0.0150382
[...]
POINT_DATA 4343
VECTORS alpha float
6.70789e-06 -3.19944e-08 9.12081e-08
6.39435e-06 -3.09128e-08 5.69357e-08
5.8045e-06 -2.26349e-09 3.90082e-10
5.85315e-06 8.71344e-10 -5.87958e-10
5.88761e-06 -1.04208e-08 8.68379e-09
5.90925e-06 -8.45901e-09 6.83887e-09
5.91964e-06 -6.47775e-09 5.15629e-09
7.00325e-06 -2.33796e-08 -2.67446e-08
1.70448e-08 1.44306e-05 -8.51499e-07
6.10208e-06 -2.94571e-08 2.12288e-08
5.85316e-06 -2.06489e-08 1.43514e-08
5.67742e-06 -1.63963e-08 2.91607e-09
5.57435e-06 -1.24582e-08 -5.93153e-09
5.53727e-06 -8.72318e-09 -1.32816e-08
5.55664e-06 -1.87034e-08 5.15753e-09
5.60436e-06 -1.53889e-08 2.38365e-09
5.66815e-06 -1.20554e-08 -2.74825e-10
5.74259e-06 -5.47178e-09 1.55769e-09
2.13078e-08 1.47083e-05 -8.68848e-07
7.23984e-06 -2.36086e-08 -8.45787e-08
5.30042e-06 -2.49311e-08 7.90576e-08
5.05919e-06 -2.37564e-08 4.3834e-08
2.04895e-08 1.33e-05 -7.62149e-07
2.10113e-08 1.17201e-05 -6.51316e-07
1.7297e-08 1.007e-05 -5.95707e-07
1.61161e-08 8.52445e-06 -4.99928e-07
1.48323e-08 7.22268e-06 -4.21362e-07
9.09642e-09 6.17878e-06 -3.6552e-07
7.29275e-09 5.32476e-06 -3.11815e-07
5.79387e-09 4.59801e-06 -2.67323e-07
3.38108e-09 3.94199e-06 -2.33286e-07
2.08303e-09 3.30284e-06 -1.94916e-07
1.06688e-09 2.66137e-06 -1.57076e-07
1.03447e-09 2.0094e-06 -1.18014e-07
3.72659e-10 1.34614e-06 -7.81513e-08
2.45157e-11 6.75177e-07 -3.88744e-08
5.56232e-06 -1.82576e-08 -1.86424e-08
7.30738e-09 1.25606e-05 -7.83761e-07
1.5292e-08 1.40167e-05 -8.57332e-07
7.37746e-06 -2.27387e-08 -1.63852e-07
4.50965e-06 -1.89562e-08 6.62993e-08
1.64677e-08 1.43074e-05 -8.19756e-07
4.86576e-06 -2.40574e-08 1.27478e-08
4.73033e-06 -1.4594e-08 1.518e-08
4.66934e-06 -1.27013e-08 4.36894e-09
4.6741e-06 -1.09337e-08 -4.36112e-09
4.73204e-06 -9.23128e-09 -1.21808e-08
4.83043e-06 -1.49962e-08 2.6845e-09
4.94173e-06 -1.37409e-08 -1.49171e-09
5.05446e-06 -1.2416e-08 -5.74639e-09
5.16514e-06 -3.46215e-09 6.13964e-09
5.25285e-06 -2.38692e-09 3.0618e-09
5.32032e-06 -1.26821e-09 1.03222e-10
5.36751e-06 -8.61173e-09 3.79378e-09
5.39706e-06 -8.5492e-09 -3.10506e-10
5.41121e-06 -8.46545e-09 -4.30717e-09
6.70823e-06 3.19939e-08 -9.03756e-08
5.90966e-06 8.45199e-09 -7.25426e-09
5.88826e-06 1.04143e-08 -9.12213e-09
5.854e-06 -1.02528e-09 -1.35313e-10
5.80551e-06 2.15129e-09 -1.0531e-09
5.74446e-06 5.27893e-09 -2.14297e-09
6.3948e-06 3.09587e-08 -5.60357e-08
5.91908e-06 7.14607e-09 -4.53112e-09
5.66928e-06 1.18543e-08 -2.13073e-10
5.60548e-06 1.5263e-08 -2.66084e-09
5.55771e-06 1.86493e-08 -5.23838e-09
5.53826e-06 8.70995e-09 1.37233e-08
5.57524e-06 1.24929e-08 6.54609e-09
5.6782e-06 1.64803e-08 -2.12498e-09
5.85382e-06 2.07857e-08 -1.33707e-08
1.70477e-08 -1.44309e-05 8.49656e-07
6.10264e-06 2.95453e-08 -2.02635e-08
7.0035e-06 2.33397e-08 2.68152e-08
1.07251e-13 5.15095e-10 -2.94909e-11
2.30108e-11 -6.7425e-07 3.8807e-08
3.70043e-10 -1.34545e-06 7.8111e-08
1.03145e-09 -2.00904e-06 1.18033e-07
1.06409e-09 -2.66135e-06 1.57298e-07
2.08072e-09 -3.30307e-06 1.95308e-07
3.37935e-09 -3.94234e-06 2.33881e-07
5.79035e-09 -4.59837e-06 2.68185e-07
7.28904e-09 -5.32508e-06 3.12726e-07
9.09246e-09 -6.17901e-06 3.66472e-07
1.48197e-08 -7.22263e-06 4.22527e-07
1.61045e-08 -8.52439e-06 5.00924e-07
1.72883e-08 -1.007e-05 5.96439e-07
5.05997e-06 2.37458e-08 -4.32415e-08
5.30113e-06 2.48832e-08 -7.85205e-08
2.10032e-08 -1.17199e-05 6.50636e-07
2.04852e-08 -1.33e-05 7.60914e-07
2.13132e-08 -1.47083e-05 8.66705e-07
7.24001e-06 2.34911e-08 8.44561e-08
1.29268e-13 5.51409e-10 -3.1043e-11
5.41129e-06 8.4987e-09 4.02551e-09
5.39727e-06 8.58627e-09 7.51751e-12
5.36786e-06 8.65394e-09 -4.11685e-09
5.32079e-06 1.19805e-09 -6.60922e-10
5.25345e-06 2.34797e-09 -3.57502e-09
5.16583e-06 3.45306e-09 -6.60651e-09
5.05523e-06 1.22201e-08 5.32769e-09
4.94256e-06 1.36161e-08 1.2679e-09
4.8313e-06 1.49383e-08 -2.72732e-09
4.73293e-06 9.18247e-09 1.24348e-08
4.67499e-06 1.09238e-08 4.74717e-09
4.67022e-06 1.27296e-08 -3.85592e-09
4.73119e-06 1.46615e-08 -1.45364e-08
1.64695e-08 -1.43076e-05 8.18024e-07
4.86659e-06 2.40802e-08 -1.20981e-08
5.56295e-06 1.82101e-08 1.87481e-08
1.53043e-08 -1.40168e-05 8.55157e-07
7.32653e-09 -1.25607e-05 7.81694e-07
7.37757e-06 2.25425e-08 1.63521e-07
1.38897e-08 1.08659e-05 -7.15278e-07
7.25194e-09 1.03824e-05 -7.46314e-07
1.53652e-05 -1.9393e-08 -6.88769e-07
1.55155e-09 9.6406e-06 -7.27672e-07
1.73603e-05 -6.09573e-09 -8.37632e-07
-2.67798e-09 8.60949e-06 -6.59328e-07
-5.03258e-09 8.66748e-06 -6.46628e-07
1.87687e-05 2.3608e-09 -9.88994e-07
-4.75324e-09 7.27296e-06 -5.46048e-07
-7.51059e-09 7.27692e-06 -5.32713e-07
1.59477e-05 6.10903e-09 -1.18099e-06
-1.73209e-08 1.21892e-05 -8.45167e-07
4.28487e-11 9.79655e-06 -7.1567e-07
1.50703e-05 -8.19703e-09 -1.05754e-06
-2.14008e-08 1.35799e-05 -9.53151e-07
1.31297e-05 -3.22849e-08 -5.59718e-07
3.24715e-09 1.06582e-05 -7.36739e-07
1.3627e-05 -1.7323e-08 -9.25192e-07
1.31265e-05 2.7165e-09 -1.29757e-06
1.09423e-05 -3.9386e-08 -4.49206e-07
-2.6126e-08 1.47614e-05 -1.00847e-06
1.50222e-08 1.11343e-05 -6.56487e-07
1.35435e-09 1.12587e-05 -7.09627e-07
1.19004e-05 -4.34848e-08 -7.64883e-07
-2.21225e-08 2.3087e-05 -1.26441e-06
-6.47044e-09 2.19921e-05 -1.17193e-06
-4.19094e-10 2.13457e-05 -9.71633e-07
-1.63352e-06 2.1388e-09 2.39889e-07
1.55699e-09 2.13762e-05 -7.85186e-07
-7.75036e-06 -1.95687e-08 1.15601e-06
1.00501e-08 2.24182e-05 -5.46842e-07
3.09677e-06 -1.54747e-08 -4.39336e-07
1.91776e-05 -1.9878e-09 -1.12373e-06
1.59206e-05 1.97075e-08 -1.27363e-06
1.28215e-05 1.55807e-08 -1.32655e-06
-6.07758e-09 5.65175e-06 -4.37834e-07
-7.36535e-09 5.6688e-06 -4.1202e-07
-1.61077e-08 1.06608e-05 -7.29991e-07
1.82004e-05 -6.71424e-09 -1.14822e-06
1.46755e-05 2.11161e-08 -1.28664e-06
1.15081e-05 2.49587e-08 -1.27164e-06
-6.40472e-09 3.80847e-06 -2.98383e-07
-7.16379e-09 3.92298e-06 -2.81992e-07
-1.44145e-08 9.0975e-06 -5.76237e-07
1.51599e-05 -1.30221e-08 -1.08019e-06
1.16866e-05 1.34164e-08 -1.1143e-06
8.79667e-06 2.69675e-08 -1.04588e-06
-4.17012e-09 1.87979e-06 -1.40707e-07
-4.92197e-09 2.1994e-06 -1.49103e-07
-1.46567e-08 7.662e-06 -4.49657e-07
9.64325e-06 -2.35128e-09 -7.14133e-07
6.64061e-06 9.76056e-09 -6.61901e-07
4.46825e-06 1.5054e-08 -5.56165e-07
-1.12482e-10 4.58083e-08 -3.09656e-09
-1.71216e-09 7.04313e-07 -4.28997e-08
-1.35297e-08 6.57912e-06 -3.43304e-07
1.22205e-06 1.07199e-09 -9.36988e-08
-7.76305e-07 -2.14679e-09 7.99311e-08
-1.69183e-06 -6.3071e-09 2.1856e-07
3.48884e-09 -1.44361e-06 8.203e-08
6.858e-10 -2.99133e-07 1.49098e-08
-1.14149e-08 6.11839e-06 -2.5507e-07
-1.04535e-05 -2.75632e-08 8.20561e-07
-1.08019e-05 -4.56635e-08 1.14186e-06
-9.82862e-06 -4.66978e-08 1.30654e-06
4.41334e-09 -2.2763e-06 9.14404e-08
8.50179e-10 -4.9077e-07 1.66666e-08
-8.25445e-09 6.59547e-06 -1.74205e-07
1.52696e-08 1.4127e-05 -9.13874e-07
2.17511e-08 1.48473e-05 -9.31383e-07
9.63247e-09 1.26224e-05 -8.42006e-07
9.24251e-06 -3.00091e-08 -1.11624e-07
9.10968e-06 -3.04337e-08 -2.97327e-08
9.21816e-06 -3.15014e-08 -2.19995e-07
1.57109e-08 1.41787e-05 -9.98625e-07
1.96975e-08 1.49574e-05 -1.01852e-06
1.19852e-08 1.25948e-05 -9.19245e-07
1.17875e-05 -3.95416e-08 -1.54028e-07
1.18691e-05 -3.8245e-08 -3.93125e-08
1.14877e-05 -4.39913e-08 -2.98194e-07
9.89825e-09 1.41155e-05 -1.12477e-06
1.17613e-08 1.49838e-05 -1.16113e-06
7.81262e-09 1.24228e-05 -1.02381e-06
1.48103e-05 -3.7679e-08 -2.00963e-07
1.52274e-05 -3.7698e-08 -5.86039e-08
1.41157e-05 -4.35758e-08 -3.77939e-07
3.4203e-09 1.20888e-05 -1.0558e-06
3.98344e-09 1.39146e-05 -1.19617e-06
3.71099e-09 1.49079e-05 -1.25338e-06
1.68809e-05 -1.09448e-08 -4.51286e-07
1.80727e-05 -1.7339e-08 -2.4641e-07
1.89377e-05 -2.37268e-08 -8.52577e-08
-6.40336e-09 1.46634e-05 -1.28932e-06
-1.32478e-09 1.15108e-05 -1.04524e-06
-3.62724e-09 1.34982e-05 -1.21864e-06
2.27104e-05 9.21243e-09 -1.74309e-07
1.94832e-05 2.6042e-08 -5.56655e-07
2.12764e-05 1.15145e-08 -3.28399e-07
-1.44866e-08 1.4161e-05 -1.28996e-06
-4.25826e-09 1.06406e-05 -9.81866e-07
-9.63153e-09 1.28051e-05 -1.19106e-06
2.60628e-05 1.52991e-08 -2.50972e-07
2.39688e-05 4.66268e-08 -4.45107e-07
2.15181e-05 5.15368e-08 -6.63935e-07
-2.3326e-08 1.3333e-05 -1.2489e-06
-5.60567e-09 9.43611e-06 -8.56023e-07
-1.40882e-08 1.17811e-05 -1.09634e-06
1.75344e-08 1.45824e-05 -9.20993e-07
1.95315e-08 1.34443e-05 -8.20329e-07
2.1141e-08 1.18361e-05 -7.06161e-07
8.86718e-06 -4.52425e-08 1.37244e-07
8.54182e-06 -4.08298e-08 1.02164e-07
8.19724e-06 -3.28442e-08 5.96447e-08
1.4612e-08 1.47338e-05 -1.05465e-06
1.79984e-08 1.35993e-05 -9.48064e-07
1.82562e-08 1.19849e-05 -8.14195e-07
1.17888e-05 -6.32866e-08 1.85677e-07
1.15403e-05 -5.44326e-08 1.55513e-07
1.12185e-05 -3.89966e-08 1.12082e-07
6.25039e-09 1.48356e-05 -1.27006e-06
9.04125e-09 1.37452e-05 -1.1523e-06
1.13894e-08 1.2131e-05 -1.00856e-06
1.54353e-05 -8.0369e-08 2.68721e-07
1.53669e-05 -6.16993e-08 2.1788e-07
1.51578e-05 -4.21601e-08 1.61855e-07
-8.50202e-10 1.48789e-05 -1.38854e-06
2.64121e-09 1.38539e-05 -1.27166e-06
4.85699e-09 1.22815e-05 -1.11296e-06
1.95624e-05 -7.63046e-08 3.93603e-07
1.97819e-05 -6.17936e-08 3.10586e-07
1.97841e-05 -4.54885e-08 2.19245e-07
-9.05151e-09 1.47909e-05 -1.47507e-06
-4.88745e-09 1.38673e-05 -1.36404e-06
-1.5869e-09 1.23575e-05 -1.2001e-06
2.39031e-05 -5.97895e-08 5.25282e-07
2.45409e-05 -5.74131e-08 4.09526e-07
2.48785e-05 -5.28535e-08 2.80204e-07
-1.82534e-08 1.45017e-05 -1.51761e-06
-1.31129e-08 1.37197e-05 -1.42146e-06
-8.30984e-09 1.23092e-05 -1.26006e-06
2.79457e-05 -6.41797e-08 6.65653e-07
2.91196e-05 -7.3591e-08 5.32901e-07
2.99105e-05 -8.07704e-08 3.79623e-07
-1.56818e-08 1.2033e-05 -1.28726e-06
1.48912e-05 -6.79877e-08 4.75366e-08
2.50767e-05 -5.3302e-08 2.29873e-07
2.5604e-05 4.08186e-08 -5.00044e-07
2.8386e-05 5.96515e-09 -2.90091e-07
2.25007e-05 7.18792e-08 -7.49156e-07
-2.27928e-08 1.21709e-05 -1.1039e-06
-1.13846e-08 1.04018e-05 -9.14227e-07
-2.11183e-09 7.89402e-06 -6.61351e-07
2.56651e-05 3.27149e-08 -5.2981e-07
2.91123e-05 -2.6943e-09 -3.38635e-07
2.19799e-05 5.93944e-08 -7.46786e-07
-1.07516e-08 8.67456e-06 -6.98127e-07
-2.3976e-08 1.06417e-05 -9.14671e-07
-1.09553e-09 6.04646e-06 -4.48127e-07
2.31641e-05 2.46421e-08 -5.4618e-07
2.71181e-05 -5.53777e-09 -3.70452e-07
1.9112e-05 4.22289e-08 -7.24825e-07
-9.7051e-09 6.69162e-06 -5.07428e-07
-2.35162e-08 8.81885e-06 -7.20557e-07
-7.69416e-10 4.01461e-06 -2.77911e-07
1.7468e-05 3.23734e-08 -4.64697e-07
2.1666e-05 1.33869e-08 -3.32527e-07
1.33716e-05 3.68671e-08 -5.68519e-07
-7.02838e-09 4.58533e-06 -3.10109e-07
-2.00052e-08 6.80099e-06 -5.02928e-07
-7.35429e-11 1.96027e-06 -1.18049e-07
1.19484e-05 2.3668e-08 -1.86357e-07
4.21054e-06 1.62504e-08 -1.91589e-07
7.89852e-06 1.97357e-08 -2.29477e-07
-3.6943e-09 2.55137e-06 -1.41865e-07
-1.44724e-08 4.75149e-06 -2.95459e-07
2.7797e-11 1.0927e-07 -5.21831e-09
-2.78883e-06 -9.28775e-09 4.83008e-08
-8.8482e-06 -4.73302e-08 4.19204e-07
-6.15664e-06 -2.4509e-08 1.87541e-07
-8.51829e-09 2.90971e-06 -1.33827e-07
-9.55662e-10 -1.24277e-06 3.89448e-08
-9.94734e-10 8.59777e-07 -3.40233e-08
-2.40091e-08 1.38832e-05 -1.46538e-06
-2.01043e-08 1.32913e-05 -1.39788e-06
3.10053e-05 -6.33508e-08 7.50402e-07
3.28031e-05 -9.00869e-08 6.25647e-07
3.41454e-05 -1.158e-07 4.74046e-07
-2.16929e-08 1.15096e-05 -1.1216e-06
-2.33766e-08 1.2951e-05 -1.24856e-06
-2.29983e-08 1.25807e-05 -1.22545e-06
3.24493e-05 -8.16082e-08 7.94747e-07
3.49143e-05 -1.27288e-07 6.78666e-07
3.6866e-05 -1.74018e-07 5.32163e-07
-2.61024e-08 1.06914e-05 -9.50749e-07
-2.19099e-08 1.16477e-05 -9.86279e-07
-2.49079e-08 1.15315e-05 -1.00779e-06
3.10436e-05 -1.02732e-07 6.75647e-07
3.41298e-05 -1.49649e-07 6.17894e-07
3.66823e-05 -1.9861e-07 5.29001e-07
-1.89095e-08 1.00275e-05 -8.16654e-07
-2.46424e-08 1.0174e-05 -8.61566e-07
-2.82871e-08 9.58418e-06 -8.34134e-07
2.59392e-05 -7.79918e-08 4.80942e-07
2.95096e-05 -1.16886e-07 4.84779e-07
3.25714e-05 -1.5915e-07 4.61425e-07
-1.44975e-08 8.172e-06 -6.10191e-07
-2.19381e-08 8.56431e-06 -6.72285e-07
-2.75125e-08 8.23204e-06 -6.71037e-07
1.61914e-05 -3.67921e-08 2.95947e-07
1.99954e-05 -6.14173e-08 3.35651e-07
2.3372e-05 -9.00692e-08 3.53524e-07
-9.22531e-09 6.22061e-06 -3.93563e-07
-1.71839e-08 6.81385e-06 -4.6029e-07
-2.38658e-08 6.71827e-06 -4.78004e-07
8.85437e-07 -5.18615e-10 1.65585e-08
4.5454e-06 -6.22813e-09 7.65904e-08
7.92439e-06 -1.69926e-08 1.17574e-07
-3.74899e-09 4.37865e-06 -1.97344e-07
-1.10801e-08 5.09672e-06 -2.5388e-07
-1.80514e-08 5.18856e-06 -2.80364e-07
1.09736e-05 -4.11856e-08 6.65191e-08
2.64354e-05 -1.0972e-07 1.42259e-07
3.89413e-05 -1.34215e-07 3.83734e-07
3.53416e-05 -1.40902e-07 2.64225e-07
3.52204e-05 -1.101e-07 5.16674e-07
-1.525e-05 -6.79293e-08 2.3107e-06
-2.55789e-05 -1.02398e-07 2.03886e-06
-2.35402e-05 -1.25442e-07 2.53596e-06
-1.998e-05 -1.19338e-07 2.69431e-06
5.04374e-08 2.47866e-05 -1.5219e-07
4.89212e-09 8.34835e-06 -5.61263e-08
1.92989e-10 4.96205e-07 -5.38201e-09
7.29043e-11 -2.07862e-06 3.51296e-08
-2.40446e-05 -1.48097e-07 3.64364e-06
-3.89668e-05 -3.04887e-07 4.0889e-06
-3.20774e-05 -2.44912e-07 4.27772e-06
-4.41918e-05 -2.64706e-07 3.45264e-06
1.18687e-07 2.8786e-05 5.02581e-07
3.48496e-08 1.17504e-05 2.29159e-07
-8.81716e-10 -4.38186e-07 -5.08313e-09
7.84639e-09 3.05578e-06 4.85914e-08
-3.39527e-05 -2.37563e-07 5.04717e-06
-4.59233e-05 -4.49816e-07 5.83815e-06
-6.61086e-05 -4.46377e-07 5.06266e-06
-5.68663e-05 -4.94844e-07 5.85204e-06
2.28035e-07 3.47134e-05 1.52776e-06
9.52757e-08 1.71403e-05 8.2102e-07
1.39705e-08 3.07642e-06 1.39573e-07
3.94146e-08 7.58678e-06 3.59175e-07
-6.1149e-05 -6.36819e-07 7.83071e-06
-9.09582e-05 -6.74913e-07 7.098e-06
-7.68648e-05 -7.15025e-07 8.0046e-06
3.9062e-07 4.28326e-05 3.05484e-06
6.50181e-08 8.89402e-06 7.23493e-07
1.1636e-07 1.44718e-05 1.17093e-06
2.13231e-07 2.48463e-05 1.95422e-06
-0.000118168 -9.13414e-07 9.25901e-06
-9.84435e-05 -9.47256e-07 1.01966e-05
-7.73252e-05 -8.26391e-07 9.82315e-06
2.55652e-07 2.40598e-05 2.80139e-06
1.72369e-07 1.74223e-05 2.0855e-06
3.87963e-07 3.51562e-05 3.89221e-06
-0.000120958 -1.14792e-06 1.22275e-05
-0.000147012 -1.14453e-06 1.1349e-05
-9.39103e-05 -9.86101e-07 1.15654e-05
4.87837e-07 3.66396e-05 5.63926e-06
3.66583e-07 2.90212e-05 4.66472e-06
6.5371e-07 4.82818e-05 6.95421e-06
-0.000143676 -1.29012e-06 1.38933e-05
-0.000176654 -1.32768e-06 1.31465e-05
8.35896e-07 5.24378e-05 1.00757e-05
6.76208e-07 4.3995e-05 8.94303e-06
-0.000204133 -1.4019e-06 1.41367e-05
1.12057e-06 6.24229e-05 1.53708e-05
-2.61195e-05 -1.86316e-07 1.24598e-06
-2.51406e-05 -1.42771e-07 7.71201e-07
-2.3126e-05 -9.86264e-08 4.13817e-07
-4.1501e-09 -1.73301e-06 1.45942e-08
-3.18023e-11 -1.45279e-07 2.27172e-09
-2.93371e-09 1.59141e-06 -3.4894e-08
-4.92944e-05 -3.05639e-07 1.42592e-06
-4.94354e-05 -2.3585e-07 7.87455e-07
-4.77303e-05 -3.65906e-07 2.19481e-06
-4.08359e-09 -9.48079e-07 -1.93921e-08
-1.12334e-10 -6.03249e-08 -8.86143e-10
-5.64442e-10 1.1824e-06 1.12436e-08
-7.85936e-05 -5.0968e-07 1.98389e-06
-8.18095e-05 -4.04474e-07 9.80766e-07
-7.35642e-05 -5.89162e-07 3.10828e-06
6.08487e-09 1.56536e-06 8.0529e-08
2.71799e-09 2.12265e-06 1.0105e-07
1.02579e-08 1.55954e-06 8.64677e-08
-0.000120024 -6.41687e-07 1.71022e-06
-0.000103235 -9.03536e-07 4.73071e-06
-0.000112717 -7.90276e-07 3.18745e-06
5.61016e-08 6.24929e-06 5.83468e-07
3.17341e-08 5.20869e-06 4.73447e-07
1.59357e-08 4.89218e-06 4.30775e-07
-0.000136175 -1.21891e-06 6.4206e-06
-0.000151115 -1.08746e-06 4.52417e-06
-0.000163577 -8.90981e-07 2.63027e-06
1.56147e-07 1.35701e-05 1.8218e-06
9.62498e-08 1.13512e-05 1.51777e-06
5.45571e-08 9.98994e-06 1.32108e-06
-0.000193015 -1.37663e-06 5.8687e-06
-0.000211728 -1.14295e-06 3.59742e-06
-0.000171622 -1.52226e-06 8.06255e-06
3.39061e-07 2.39391e-05 4.25205e-06
2.25159e-07 2.04571e-05 3.67428e-06
1.39872e-07 1.79129e-05 3.22581e-06
-2.07133e-05 -2.02683e-08 -3.86395e-07
-1.7718e-05 -3.81069e-09 -2.92864e-07
-1.4784e-05 8.02384e-09 -2.09722e-07
-1.21699e-05 5.6765e-08 -8.45214e-08
-4.47205e-09 3.65713e-06 -9.59297e-08
-1.08568e-08 3.85511e-06 -1.19191e-07
1.14627e-09 2.92368e-06 -6.20004e-08
-4.90871e-05 -1.04662e-07 -9.31626e-07
-4.74323e-05 -6.36299e-08 -7.86854e-07
-4.55457e-05 -2.50288e-08 -6.32413e-07
-4.38905e-05 1.68498e-07 -4.15719e-07
4.23681e-09 2.21807e-06 2.30223e-08
-9.22878e-11 2.82514e-06 1.48052e-08
-5.86045e-09 3.01409e-06 7.17454e-10
-8.44662e-05 -2.12813e-07 -1.72217e-06
-8.49744e-05 -1.51106e-07 -1.51925e-06
-8.4891e-05 -8.67323e-08 -1.27619e-06
-8.46258e-05 4.31871e-08 -1.18754e-06
9.70951e-09 2.68267e-06 1.281e-07
4.10226e-09 2.99578e-06 1.29238e-07
-2.56236e-09 3.0289e-06 1.163e-07
-0.000126713 -3.59152e-07 -1.89925e-06
-0.000130353 -2.76533e-07 -1.76768e-06
-0.000132986 -1.81825e-07 -1.57004e-06
-0.00013517 9.04474e-08 -1.48908e-06
2.67396e-08 4.78445e-06 4.29463e-07
1.42314e-08 4.61519e-06 3.95818e-07
2.64647e-09 4.31845e-06 3.51087e-07
-0.000175342 -4.74436e-07 -1.74668e-06
-0.000183238 -3.85883e-07 -1.71269e-06
-0.000189678 -2.77067e-07 -1.56632e-06
-0.000195395 2.05932e-07 -1.65725e-06
7.0029e-08 9.02381e-06 1.2268e-06
4.12805e-08 8.17434e-06 1.08704e-06
1.74529e-08 7.35434e-06 9.50257e-07
-0.000229686 -5.88533e-07 -1.31801e-06
-0.000243053 -5.1488e-07 -1.40746e-06
-0.00025451 -4.15199e-07 -1.33092e-06
1.59741e-07 1.59132e-05 2.95636e-06
1.01179e-07 1.41886e-05 2.61673e-06
5.37727e-08 1.26426e-05 2.30006e-06
-0.000265325 5.70117e-07 -1.72153e-06
-0.000208716 -1.77274e-06 9.38499e-06
-0.000237527 -1.62106e-06 6.96316e-06
-0.000263599 -1.35921e-06 4.36527e-06
6.48977e-07 3.77288e-05 8.36006e-06
4.61427e-07 3.29582e-05 7.48643e-06
3.11698e-07 2.91389e-05 6.71992e-06
-0.000244206 -1.86704e-06 9.87295e-06
-0.000281144 -1.71056e-06 7.30215e-06
-0.00031548 -1.42645e-06 4.44549e-06
8.29852e-07 4.91244e-05 1.3495e-05
5.95498e-07 4.40038e-05 1.24169e-05
1.10711e-06 5.51298e-05 1.45876e-05
0.00207093 6.85805e-06 -1.90009e-05
0.00196869 9.01813e-06 -4.01637e-05
-0.000288863 -6.8482e-07 -6.878e-07
-0.000309029 -6.51113e-07 -9.83522e-07
-0.000326858 -5.89442e-07 -1.06613e-06
-0.000343777 7.40574e-07 -1.25233e-06
3.24051e-07 2.59666e-05 6.13292e-06
2.2155e-07 2.31837e-05 5.51908e-06
1.37716e-07 2.07075e-05 4.93773e-06
-0.000348989 -6.43902e-07 -3.55445e-07
-0.000377221 -6.73183e-07 -9.90808e-07
-0.000402776 -6.80654e-07 -1.38404e-06
4.23231e-07 3.55922e-05 1.04349e-05
2.8812e-07 3.19985e-05 9.52348e-06
5.84975e-07 3.95844e-05 1.13589e-05
0.00231866 2.48082e-06 1.41041e-05
0.00224926 2.13932e-06 1.02753e-05
0.00217121 1.72701e-06 4.83131e-06
1.81214e-08 1.01504e-05 -6.37588e-07
1.67768e-08 8.56922e-06 -5.31631e-07
1.53077e-08 7.23501e-06 -4.4573e-07
1.08776e-05 -5.25246e-08 5.25193e-09
7.87713e-06 -3.29651e-08 2.12761e-09
7.61025e-06 -2.37594e-08 -2.42224e-09
7.41356e-06 -1.51662e-08 -4.20563e-09
7.28862e-06 -7.00479e-09 -3.8483e-09
1.96964e-05 -7.07457e-08 1.22683e-07
1.58289e-08 1.02702e-05 -7.29006e-07
1.45343e-08 8.65522e-06 -6.09063e-07
1.31374e-08 7.28627e-06 -5.11713e-07
1.05846e-05 -3.9323e-08 -2.28908e-08
1.03324e-05 -2.23546e-08 -7.62451e-09
1.01486e-05 -6.11565e-09 1.02021e-08
3.0523e-05 -6.35662e-08 3.12136e-07
1.0363e-08 1.04112e-05 -8.95672e-07
9.70746e-09 8.76862e-06 -7.49306e-07
8.86561e-09 7.36607e-06 -6.29604e-07
1.46282e-05 -5.20683e-08 3.04365e-09
1.4365e-05 -2.84551e-08 2.28587e-08
1.41553e-05 -5.59567e-09 4.67418e-08
1.02129e-08 1.05646e-05 -1.00106e-06
9.23106e-09 8.90346e-06 -8.39037e-07
8.16082e-09 7.47096e-06 -7.0385e-07
1.95361e-05 -5.47381e-08 6.18693e-08
1.93271e-05 -3.08556e-08 6.64766e-08
1.91459e-05 -7.41719e-09 7.74724e-08
9.18729e-09 1.06827e-05 -1.08535e-06
7.99563e-09 9.01954e-06 -9.13031e-07
6.83453e-09 7.56717e-06 -7.65425e-07
2.51406e-05 -4.79804e-08 1.3228e-07
2.50747e-05 -3.2736e-08 1.22353e-07
2.49967e-05 -1.76013e-08 1.20568e-07
7.49913e-09 1.07122e-05 -1.13979e-06
5.92173e-09 9.0709e-06 -9.65598e-07
4.59402e-09 7.61574e-06 -8.11366e-07
3.09039e-05 -5.95659e-08 2.1135e-07
3.10749e-05 -5.12879e-08 1.94554e-07
3.11803e-05 -4.30166e-08 1.86846e-07
8.61775e-09 6.17004e-06 -3.78639e-07
6.89331e-09 5.30004e-06 -3.21613e-07
5.45802e-09 4.56582e-06 -2.75167e-07
7.23759e-06 -2.38464e-08 5.07599e-09
7.22232e-06 -1.60553e-08 1.09639e-08