# vtk DataFile Version 3.0
vtk output
ASCII
DATASET POLYDATA
POINTS 24341 float
0.190736 1.07476 -0.061108
0.17994 1.06989 -0.0607736
0.168948 1.07501 -0.0607656
0.190924 1.06477 -0.0604816
0.180134 1.0599 -0.0601512
0.169173 1.06502 -0.0601453
0.191108 1.05478 -0.0598438
0.158195 1.07014 -0.0597167
0.180323 1.0499 -0.0595171
0.169393 1.05503 -0.059519
0.179723 1.07988 -0.0614092
0.157927 1.08014 -0.0603538
0.168704 1.085 -0.061414
0.190553 1.08475 -0.0617382
0.17951 1.08987 -0.0620478
0.157644 1.09013 -0.0610119
0.179314 1.09986 -0.0626617
0.168475 1.095 -0.0619955
0.190367 1.09474 -0.0623634
0.168275 1.10499 -0.0625463
0.1902 1.10473 -0.0629585
0.157385 1.10012 -0.0616313
0.146389 1.10527 -0.0607935
0.179115 1.10985 -0.0632499
0.157187 1.11012 -0.062189
0.168036 1.11498 -0.0632028
0.190004 1.11472 -0.0636076
0.146132 1.11526 -0.0613454
0.178898 1.11985 -0.0638919
0.156951 1.12012 -0.06281
0.189802 1.12471 -0.0642339
0.16779 1.12498 -0.0638417
0.145852 1.12526 -0.0619337
0.178697 1.12984 -0.0644895
0.156733 1.13011 -0.0633715
0.167579 1.13497 -0.0644401
0.189608 1.1347 -0.0648548
0.145611 1.13525 -0.0625164
0.178484 1.13983 -0.0650983
0.156511 1.14011 -0.0639329
0.189445 1.14469 -0.0654271
0.16736 1.14497 -0.0650193
0.145356 1.14525 -0.0630955
0.178295 1.14982 -0.0656561
0.15631 1.15011 -0.0644008
0.13448 1.15039 -0.0616039
0.134753 1.14039 -0.0610674
0.135005 1.1304 -0.0605363
0.146621 1.09527 -0.0602608
0.135267 1.1204 -0.0600041
0.146921 1.08527 -0.0596282
0.135532 1.1104 -0.0594483
0.111729 1.2206 -0.0602584
0.112013 1.21061 -0.059782
0.167152 1.15496 -0.0655703
0.18926 1.15469 -0.0660238
0.145115 1.15524 -0.0636017
0.123722 1.15552 -0.059856
0.134199 1.16038 -0.0621501
0.178096 1.15981 -0.0662662
0.156064 1.1601 -0.0649439
0.122583 1.1955 -0.0619098
0.12236 1.20549 -0.0623485
0.122137 1.21548 -0.0627968
0.12189 1.22548 -0.0632898
0.123411 1.16551 -0.0603945
0.166919 1.16495 -0.0661791
0.189076 1.16467 -0.0666462
0.144879 1.16524 -0.0641388
0.123133 1.17551 -0.0609192
0.12285 1.1855 -0.0614238
0.13392 1.17038 -0.0626922
0.177883 1.1698 -0.0668869
0.155794 1.17009 -0.0655599
0.188879 1.17467 -0.0672659
0.166683 1.17495 -0.0667865
0.177712 1.1798 -0.0674376
0.14462 1.17523 -0.0646356
0.133664 1.18037 -0.0632137
0.155599 1.18009 -0.0660067
0.1887 1.18466 -0.0678546
0.166475 1.18494 -0.0673166
0.144358 1.18523 -0.0651679
0.177525 1.18979 -0.0680088
0.155339 1.19008 -0.0665994
0.13338 1.19037 -0.0637754
0.144111 1.19522 -0.0657047
0.166301 1.19493 -0.0677947
0.188526 1.19465 -0.0684457
0.133172 1.20036 -0.0642523
0.177383 1.19979 -0.0685064
0.155131 1.20008 -0.0671309
0.143902 1.20522 -0.0662139
0.188376 1.20464 -0.0690045
0.166128 1.20493 -0.0683002
0.132948 1.21035 -0.0647306
0.132718 1.22035 -0.0652392
0.177232 1.20978 -0.0690265
0.154933 1.21007 -0.0676231
0.143698 1.21521 -0.0666742
0.188221 1.21463 -0.0695859
0.165958 1.21492 -0.0688085
0.177067 1.21977 -0.0695852
0.154688 1.22006 -0.0681893
0.143488 1.22521 -0.0671983
0.188049 1.22463 -0.0701743
0.165758 1.22492 -0.0693524
0.176906 1.22977 -0.0700892
0.337488 1.07352 -0.0619898
0.327268 1.06859 -0.0616135
0.347742 1.06849 -0.0616894
0.296495 1.07377 -0.0615193
0.316997 1.07364 -0.0617898
0.337532 1.06354 -0.0613382
0.306803 1.06872 -0.061298
0.212524 1.07452 -0.0609224
0.233955 1.07431 -0.0609559
0.255009 1.07411 -0.0609942
0.275898 1.07393 -0.0611221
0.327314 1.05861 -0.0609773
0.347777 1.05851 -0.061053
0.296573 1.0638 -0.0608791
0.317049 1.06366 -0.0611531
0.286261 1.06886 -0.061063
0.201764 1.06964 -0.0606387
0.223377 1.06942 -0.0605985
0.244593 1.06921 -0.0606901
0.265562 1.06903 -0.0606737
0.275991 1.06395 -0.0605012
0.337575 1.05357 -0.0606871
0.306865 1.05873 -0.0606626
0.212703 1.06453 -0.0603426
0.23409 1.06432 -0.0603497
0.255133 1.06413 -0.0603574
0.347811 1.04853 -0.0604082
0.327359 1.04863 -0.0603152
0.296646 1.05382 -0.0602306
0.3171 1.05368 -0.0605153
0.286357 1.05888 -0.0604124
0.201968 1.05965 -0.0600669
0.223526 1.05943 -0.0600106
0.244723 1.05923 -0.0600435
0.265673 1.05905 -0.0600232
0.276091 1.05397 -0.0598753
0.317147 1.0437 -0.0598668
0.337609 1.04359 -0.0600317
0.306916 1.04876 -0.0600218
0.234229 1.05434 -0.0597678
0.255254 1.05415 -0.0597074
0.212878 1.05455 -0.0597617
0.327402 1.03865 -0.0596487
0.347836 1.03855 -0.0597583
0.296709 1.04384 -0.0595813
0.286433 1.0489 -0.0597586
0.418873 1.07323 -0.0624456
0.378268 1.07334 -0.0624128
0.398558 1.07328 -0.0624076
0.368103 1.06839 -0.0620289
0.388461 1.06832 -0.0620316
0.408723 1.06827 -0.0621129
0.357858 1.07343 -0.0621788
0.378325 1.06337 -0.061735
0.398594 1.0633 -0.0617342
0.418889 1.06326 -0.0617662
0.368176 1.05842 -0.0613915
0.38851 1.05835 -0.0613693
0.408748 1.05829 -0.0614527
0.357944 1.06345 -0.0615406
0.37839 1.05339 -0.0610742
0.398636 1.05333 -0.0610723
0.418913 1.05329 -0.0610944
0.368244 1.04844 -0.0607427
0.388561 1.04837 -0.0607038
0.408777 1.04832 -0.060788
0.358028 1.05347 -0.060905
0.358079 1.04349 -0.0602521
0.378446 1.04342 -0.060413
0.398672 1.04336 -0.0604082
0.418932 1.04331 -0.0604202
0.368307 1.03847 -0.0600919
0.388604 1.0384 -0.0600425
0.408804 1.03834 -0.060125
0.358157 1.03352 -0.059608
0.378505 1.03344 -0.0597536
0.398709 1.03338 -0.059749
0.418951 1.03334 -0.059751
0.439193 1.07319 -0.0624582
0.459505 1.07316 -0.0625646
0.449357 1.06819 -0.0621932
0.46966 1.06817 -0.062107
0.479798 1.07316 -0.0623983
0.43921 1.06322 -0.0617836
0.459505 1.06319 -0.0618824
0.479796 1.06318 -0.0617249
0.429037 1.06823 -0.0620527
0.489927 1.06817 -0.0620443
0.429059 1.05825 -0.0613864
0.449365 1.05821 -0.0615239
0.469652 1.0582 -0.0614317
0.489923 1.05819 -0.0613771
0.439228 1.05325 -0.061112
0.459505 1.05322 -0.0612038
0.479779 1.05321 -0.0610492
0.500008 1.0532 -0.061098
0.429089 1.04828 -0.0607133
0.449372 1.04824 -0.0608498
0.469642 1.04822 -0.060753
0.489897 1.04821 -0.0607009
0.439241 1.04327 -0.0604356
0.459503 1.04324 -0.0605201
0.479761 1.04323 -0.0603686
0.499972 1.04322 -0.0604191
0.429113 1.03831 -0.0600375
0.449376 1.03827 -0.0601745
0.469631 1.03825 -0.0600729
0.489871 1.03824 -0.0600232
0.500006 1.07314 -0.0624522
0.500014 1.06317 -0.0617728
0.439256 1.0333 -0.059764
0.4595 1.03327 -0.0598424
0.479741 1.03326 -0.0596947
0.201583 1.07962 -0.0611858
0.223221 1.0794 -0.0611932
0.244458 1.07919 -0.0613383
0.265452 1.07901 -0.0613224
0.265342 1.08899 -0.0619755
0.212335 1.0845 -0.0615209
0.233813 1.08429 -0.0615655
0.254883 1.08409 -0.0616446
0.201412 1.08961 -0.0618546
0.212157 1.09448 -0.0621146
0.233674 1.09427 -0.0621674
0.254763 1.09407 -0.0622941
0.244313 1.08918 -0.0619777
0.223052 1.08938 -0.0617917
0.200545 1.13956 -0.0650456
0.20039 1.14955 -0.0656504
0.20125 1.0996 -0.0625025
0.222895 1.09937 -0.0623892
0.244185 1.09916 -0.0625977
0.265229 1.09898 -0.0626292
0.201066 1.10959 -0.0631524
0.200882 1.11958 -0.0638015
0.200703 1.12957 -0.0644281
0.211997 1.10446 -0.0627036
0.233531 1.10425 -0.0627842
0.254644 1.10405 -0.0629515
0.222735 1.10935 -0.06297
0.244052 1.10914 -0.0632366
0.265119 1.10896 -0.0632854
0.211809 1.11445 -0.0632969
0.233386 1.11424 -0.0633963
0.254514 1.11404 -0.0636126
0.243918 1.11913 -0.0638608
0.265003 1.11894 -0.0639394
0.222583 1.11933 -0.0635983
0.211625 1.12443 -0.0639162
0.254398 1.12402 -0.0642698
0.233252 1.12422 -0.0640163
0.222426 1.12932 -0.0641881
0.243803 1.12911 -0.0644831
0.2649 1.12892 -0.0645905
0.211462 1.13442 -0.0645754
0.233114 1.1342 -0.0646273
0.254272 1.134 -0.0649247
0.243667 1.13909 -0.0651159
0.264785 1.1389 -0.0652496
0.222277 1.1393 -0.0648173
0.211305 1.14441 -0.0651933
0.222112 1.14929 -0.065398
0.254147 1.14399 -0.0655497
0.243565 1.14908 -0.0657009
0.264687 1.14889 -0.0658881
0.232983 1.14419 -0.0652404
0.254039 1.15397 -0.0661881
0.337442 1.0835 -0.062644
0.327212 1.07856 -0.0622683
0.3477 1.07846 -0.0623445
0.306733 1.07869 -0.0619424
0.286156 1.07884 -0.0617156
0.327159 1.08854 -0.062923
0.347656 1.08844 -0.063003
0.306666 1.08867 -0.0625904
0.286061 1.08882 -0.0623472
0.31693 1.08362 -0.0624355
0.296409 1.08376 -0.0621741
0.275789 1.08391 -0.0617659
0.337388 1.09348 -0.0633124
0.316876 1.0936 -0.0630773
0.296334 1.09374 -0.062823
0.275687 1.09389 -0.0624271
0.306587 1.09865 -0.0632428
0.327096 1.09852 -0.0635782
0.347604 1.09842 -0.0636681
0.285963 1.0988 -0.0629835
0.275499 1.11386 -0.0637015
0.275394 1.12384 -0.0643628
0.275305 1.13382 -0.065019
0.275209 1.14381 -0.0656568
0.27512 1.15379 -0.0663049
0.316817 1.10357 -0.0637259
0.337331 1.10346 -0.0639905
0.296254 1.10371 -0.0634574
0.275598 1.10388 -0.0630471
0.327041 1.1085 -0.0642294
0.347561 1.1084 -0.0643279
0.28587 1.10878 -0.0636178
0.306515 1.10863 -0.0639078
0.337276 1.11344 -0.0646567
0.296166 1.1137 -0.0641128
0.31675 1.11356 -0.0643799
0.347511 1.11838 -0.0649939
0.306437 1.11861 -0.0645641
0.326979 1.11848 -0.0648918
0.285787 1.11876 -0.0642374
0.316686 1.12354 -0.0650295
0.337219 1.12342 -0.0653387
0.296082 1.12368 -0.0647826
0.32693 1.12846 -0.0655336
0.347475 1.12836 -0.0656439
0.285696 1.12874 -0.0648716
0.306368 1.12859 -0.0652262
0.337174 1.13339 -0.0660126
0.295993 1.13366 -0.0654451
0.316627 1.13352 -0.0656911
0.347437 1.13833 -0.0663171
0.316573 1.1435 -0.0663224
0.337128 1.14338 -0.0666577
0.306294 1.13857 -0.0658827
0.326875 1.13844 -0.0661922
0.295919 1.14364 -0.0660768
0.285602 1.13873 -0.0655225
0.326827 1.14842 -0.0668248
0.347395 1.14832 -0.0669676
0.285513 1.14871 -0.0661719
0.306231 1.14856 -0.0665259
0.33708 1.15336 -0.0673189
0.295829 1.15362 -0.0667205
0.316511 1.15348 -0.0669825
0.211167 1.1544 -0.0658259
0.232852 1.15418 -0.0658515
0.243439 1.15906 -0.0663116
0.264582 1.15887 -0.0665273
0.200228 1.15954 -0.0662756
0.221964 1.15927 -0.0660042
0.253917 1.16395 -0.0668107
0.232706 1.16416 -0.0664554
0.199314 1.21948 -0.0699032
0.199155 1.22948 -0.0704956
0.211022 1.16439 -0.0664661
0.221798 1.16925 -0.0665892
0.243317 1.16905 -0.0669237
0.264478 1.16885 -0.0671522
0.200052 1.16953 -0.0669241
0.199882 1.17952 -0.067552
0.199734 1.18951 -0.0681488
0.19959 1.1995 -0.0687347
0.199455 1.20949 -0.0693055
[...]
POINT_DATA 24341
VECTORS alpha float
-3.4262e-07 2.02334e-05 -1.25466e-06
6.7217e-07 -6.78592e-09 3.83323e-08
-4.21786e-07 2.04421e-05 -1.25756e-06
-3.39115e-07 2.02458e-05 -1.27308e-06
6.58111e-07 -6.59164e-09 3.73481e-08
-4.13241e-07 2.04548e-05 -1.26886e-06
-3.28194e-07 2.0258e-05 -1.27212e-06
6.51024e-07 -6.68826e-09 1.70223e-08
6.4951e-07 -6.46121e-09 3.66046e-08
-3.9387e-07 2.04671e-05 -1.25308e-06
6.86381e-07 -6.97432e-09 3.94448e-08
6.65852e-07 -6.89061e-09 1.81085e-08
-4.11759e-07 2.04294e-05 -1.24693e-06
-3.23007e-07 2.02205e-05 -1.24372e-06
7.01907e-07 -7.16242e-09 4.08079e-08
6.81613e-07 -7.08859e-09 1.98869e-08
7.09662e-07 -7.28461e-09 4.14385e-08
-4.19883e-07 2.04167e-05 -1.27245e-06
-3.29763e-07 2.02081e-05 -1.26437e-06
-4.20898e-07 2.0404e-05 -1.25641e-06
-3.31231e-07 2.01957e-05 -1.25294e-06
6.9006e-07 -7.22848e-09 2.0632e-08
-4.49345e-07 1.93975e-05 -1.18942e-06
7.2543e-07 -7.49179e-09 4.26639e-08
7.0472e-07 -7.42583e-09 2.07447e-08
-4.26104e-07 2.0391e-05 -1.27924e-06
-3.3466e-07 2.01827e-05 -1.25213e-06
-4.48596e-07 1.93849e-05 -1.20622e-06
7.39806e-07 -7.68679e-09 4.40002e-08
7.18961e-07 -7.61267e-09 2.15307e-08
-3.37509e-07 2.01697e-05 -1.25202e-06
-4.25356e-07 2.03774e-05 -1.27361e-06
-4.50769e-07 1.93715e-05 -1.17801e-06
7.48119e-07 -7.82391e-09 4.3763e-08
7.26956e-07 -7.75157e-09 2.11242e-08
-4.19635e-07 2.03638e-05 -1.28777e-06
-3.25535e-07 2.01551e-05 -1.24557e-06
-4.32938e-07 1.93571e-05 -1.1795e-06
7.6122e-07 -8.00918e-09 4.46065e-08
7.39506e-07 -7.94085e-09 2.11347e-08
-3.38614e-07 2.0142e-05 -1.25554e-06
-4.15053e-07 2.03488e-05 -1.2588e-06
-4.23717e-07 1.93428e-05 -1.14309e-06
7.74205e-07 -8.18458e-09 4.39206e-08
7.52071e-07 -8.11297e-09 1.89131e-08
7.16308e-07 -7.39632e-09 -2.93781e-08
7.03674e-07 -7.21608e-09 -2.82912e-08
6.91138e-07 -7.04625e-09 -2.75659e-08
-4.51006e-07 1.94103e-05 -1.22371e-06
6.83709e-07 -6.91992e-09 -2.69268e-08
-4.47721e-07 1.94232e-05 -1.20284e-06
6.70187e-07 -6.74147e-09 -2.63777e-08
7.51998e-07 -7.26331e-09 -1.25886e-07
7.39995e-07 -7.11983e-09 -1.2121e-07
-4.18017e-07 2.0334e-05 -1.23245e-06
-3.47849e-07 2.01288e-05 -1.25937e-06
-4.24248e-07 1.93288e-05 -1.08294e-06
-4.7018e-07 1.74299e-05 -9.54555e-07
7.32052e-07 -7.59963e-09 -3.09126e-08
7.91277e-07 -8.39515e-09 4.44953e-08
7.69027e-07 -8.30745e-09 1.74527e-08
-4.73997e-07 1.73769e-05 -9.40148e-07
-4.78638e-07 1.73631e-05 -9.05374e-07
-4.68058e-07 1.73478e-05 -9.02646e-07
-4.94824e-07 1.73337e-05 -9.2249e-07
-4.68382e-07 1.74167e-05 -9.75095e-07
-4.14335e-07 2.03181e-05 -1.23573e-06
-3.49747e-07 2.01139e-05 -1.25771e-06
-4.30679e-07 1.93146e-05 -1.1269e-06
-4.59763e-07 1.74031e-05 -9.58824e-07
-4.49201e-07 1.739e-05 -9.25701e-07
7.45024e-07 -7.77833e-09 -3.22995e-08
8.05579e-07 -8.55668e-09 4.46922e-08
7.83486e-07 -8.48636e-09 1.74328e-08
-3.437e-07 2.00996e-05 -1.23938e-06
-3.99373e-07 2.03025e-05 -1.2063e-06
8.26288e-07 -8.81931e-09 4.49303e-08
-4.0535e-07 1.93e-05 -1.08779e-06
7.65329e-07 -8.02527e-09 -3.47679e-08
8.04436e-07 -8.72612e-09 1.49782e-08
-3.32773e-07 2.00849e-05 -1.23337e-06
-3.80906e-07 2.02872e-05 -1.17033e-06
-3.91633e-07 1.92846e-05 -1.07586e-06
8.42462e-07 -9.04038e-09 4.46755e-08
8.21025e-07 -8.96347e-09 1.54253e-08
7.80054e-07 -8.21386e-09 -3.70247e-08
-3.93706e-07 1.92698e-05 -1.08568e-06
-3.82379e-07 2.02721e-05 -1.17749e-06
-3.26206e-07 2.00698e-05 -1.23201e-06
7.92282e-07 -8.38796e-09 -4.02421e-08
8.57165e-07 -9.2359e-09 4.24287e-08
8.35617e-07 -9.18065e-09 1.42372e-08
-3.99893e-07 1.92546e-05 -1.07828e-06
-3.28727e-07 2.00555e-05 -1.23994e-06
-3.74691e-07 2.02564e-05 -1.18438e-06
8.08148e-07 -8.59311e-09 -4.39817e-08
8.21304e-07 -8.7772e-09 -4.72666e-08
8.75251e-07 -9.47844e-09 4.0728e-08
8.5353e-07 -9.43191e-09 1.16e-08
-3.70087e-07 1.92383e-05 -1.07464e-06
-3.23868e-07 2.00395e-05 -1.22305e-06
-3.6952e-07 2.02396e-05 -1.17832e-06
8.90942e-07 -9.68832e-09 3.97789e-08
8.69021e-07 -9.65e-09 9.8903e-09
-3.92149e-07 1.92231e-05 -1.08003e-06
-3.22351e-07 2.00228e-05 -1.21256e-06
-3.66309e-07 2.02228e-05 -1.17553e-06
9.06301e-07 -9.89091e-09 3.71644e-08
-4.12672e-08 8.80917e-06 -6.07135e-07
7.49426e-07 -3.19339e-09 1.33862e-08
7.58661e-07 -2.69374e-09 1.23035e-08
-5.70184e-08 1.15762e-05 -7.81626e-07
-4.44688e-08 1.01003e-05 -6.78694e-07
-3.89719e-08 8.81508e-06 -6.08912e-07
7.37337e-07 -3.73467e-09 1.09243e-08
-2.35046e-07 1.90159e-05 -1.19804e-06
-1.57894e-07 1.72042e-05 -1.08065e-06
-1.22485e-07 1.52012e-05 -1.00479e-06
-8.18449e-08 1.32816e-05 -8.86835e-07
7.35761e-07 -3.11187e-09 1.30059e-08
7.45121e-07 -2.6286e-09 1.1587e-08
-5.63532e-08 1.15837e-05 -7.85631e-07
-4.46649e-08 1.0107e-05 -6.836e-07
7.26366e-07 -4.34134e-09 1.09658e-08
6.86145e-07 -6.55773e-09 4.0305e-08
6.94294e-07 -6.06893e-09 3.24458e-08
7.05477e-07 -5.5574e-09 2.36582e-08
7.17119e-07 -5.03299e-09 1.59499e-08
-8.32805e-08 1.32903e-05 -8.8296e-07
-3.53452e-08 8.82093e-06 -6.08382e-07
7.23551e-07 -3.63766e-09 1.0417e-08
-2.34551e-07 1.90276e-05 -1.19485e-06
-1.64792e-07 1.72148e-05 -1.10018e-06
-1.21781e-07 1.52107e-05 -1.00093e-06
7.32674e-07 -2.56951e-09 1.08882e-08
7.23582e-07 -3.03852e-09 1.22087e-08
-5.20338e-08 1.15913e-05 -7.84799e-07
-4.19477e-08 1.01137e-05 -6.84227e-07
7.12316e-07 -4.21981e-09 1.0404e-08
6.71762e-07 -6.36389e-09 4.0051e-08
6.80496e-07 -5.90028e-09 3.21372e-08
6.91754e-07 -5.40791e-09 2.32276e-08
7.0348e-07 -4.89046e-09 1.56052e-08
-7.86982e-08 1.32987e-05 -8.77818e-07
-4.30151e-08 1.01203e-05 -6.82288e-07
-3.44487e-08 8.82664e-06 -6.05573e-07
7.11849e-07 -3.55133e-09 9.93221e-09
-1.64665e-07 1.7225e-05 -1.11166e-06
-1.15157e-07 1.52201e-05 -9.94714e-07
-2.27034e-07 1.90392e-05 -1.19546e-06
7.05363e-07 -2.94847e-09 1.12594e-08
7.14817e-07 -2.49749e-09 1.0061e-08
-5.27021e-08 1.15986e-05 -7.81896e-07
7.00866e-07 -4.11958e-09 9.90974e-09
-9.95629e-09 4.35472e-06 -3.04302e-07
-9.49834e-09 6.52664e-06 -4.54399e-07
-7.86852e-09 5.43884e-06 -3.77355e-07
7.65721e-07 -2.11556e-09 1.10099e-08
7.72145e-07 -1.67059e-09 9.45992e-09
7.79389e-07 -1.40425e-09 8.74012e-09
-1.39995e-08 7.63731e-06 -5.23595e-07
-9.32004e-09 6.53108e-06 -4.54582e-07
-7.45004e-09 5.44257e-06 -3.77292e-07
-9.59192e-09 4.35773e-06 -3.04817e-07
7.51756e-07 -2.05443e-09 1.08813e-08
7.583e-07 -1.62473e-09 9.17133e-09
7.65642e-07 -1.37208e-09 8.54718e-09
-1.31117e-08 7.64254e-06 -5.25309e-07
-8.47111e-09 6.53551e-06 -4.53289e-07
-6.69436e-09 5.44628e-06 -3.76378e-07
-8.69574e-09 4.36071e-06 -3.04165e-07
7.38433e-07 -1.99802e-09 1.0744e-08
7.4469e-07 -1.58729e-09 8.88693e-09
7.51789e-07 -1.34517e-09 8.31298e-09
-1.08012e-08 7.64771e-06 -5.25131e-07
-1.07379e-08 7.65288e-06 -5.23451e-07
-8.28559e-09 6.53984e-06 -4.52746e-07
-6.77272e-09 5.44992e-06 -3.75548e-07
-8.33149e-09 4.36363e-06 -3.03488e-07
7.20398e-07 -1.92995e-09 1.05622e-08
7.26869e-07 -1.53986e-09 8.62103e-09
7.34162e-07 -1.31088e-09 8.11298e-09
-9.51564e-09 7.65802e-06 -5.21984e-07
-8.19225e-09 6.54423e-06 -4.50966e-07
-6.68758e-09 5.45361e-06 -3.74567e-07
-7.83998e-09 4.3666e-06 -3.02803e-07
-1.31669e-09 3.26817e-06 -2.27361e-07
-2.32118e-09 2.17913e-06 -1.51685e-07
7.89406e-07 -6.04102e-10 8.6598e-09
7.92043e-07 -4.16435e-10 6.09316e-09
-3.25166e-10 1.0895e-06 -7.55113e-08
-1.47661e-09 3.27045e-06 -2.27855e-07
-2.21456e-09 2.18067e-06 -1.519e-07
-2.54875e-10 1.09029e-06 -7.56045e-08
7.84499e-07 -1.22266e-09 4.6509e-09
7.92473e-07 -3.27984e-10 -1.8161e-09
7.7105e-07 -1.18167e-09 4.44911e-09
7.75694e-07 -5.82074e-10 8.64703e-09
7.7836e-07 -4.08255e-10 5.92295e-09
7.79152e-07 -3.2265e-10 -1.79234e-09
-1.42943e-09 3.27271e-06 -2.27279e-07
-2.0288e-09 2.18219e-06 -1.51467e-07
-1.14562e-10 1.09106e-06 -7.53831e-08
-2.33813e-13 1.05203e-10 -7.23983e-12
7.56856e-07 -1.14542e-09 4.28998e-09
7.61374e-07 -5.59949e-10 8.57129e-09
7.63931e-07 -3.99177e-10 5.70763e-09
7.64716e-07 -3.22594e-10 -1.8365e-09
-1.36656e-09 3.27492e-06 -2.26853e-07
-1.95271e-09 2.18369e-06 -1.5097e-07
-3.97848e-11 1.09181e-06 -7.51281e-08
-2.29517e-13 1.02389e-10 -7.01589e-12
7.39254e-07 -1.10645e-09 4.16799e-09
7.43894e-07 -5.40026e-10 8.42692e-09
7.46528e-07 -3.92207e-10 5.46548e-09
7.47402e-07 -3.2422e-10 -1.86399e-09
2.18887e-13 1.06318e-10 -7.33834e-12
2.29327e-13 1.05515e-10 -7.29685e-12
-1.51246e-09 3.27717e-06 -2.26357e-07
-1.8938e-09 2.1852e-06 -1.50613e-07
3.03997e-11 1.09257e-06 -7.49466e-08
7.00963e-07 -6.73649e-09 4.04085e-08
7.08818e-07 -6.22014e-09 3.29153e-08
7.20591e-07 -5.69938e-09 2.41985e-08
7.32889e-07 -5.16712e-09 1.6523e-08
7.45959e-07 -5.28457e-09 1.69737e-08
-2.27263e-07 1.90041e-05 -1.2096e-06
-1.4576e-07 1.71929e-05 -1.0769e-06
-1.17342e-07 1.5191e-05 -1.01005e-06
7.16301e-07 -6.90977e-09 4.11101e-08
-2.37621e-07 1.89921e-05 -1.21263e-06
-1.52291e-07 1.71821e-05 -1.08637e-06
-1.19391e-07 1.5181e-05 -1.01198e-06
7.34328e-07 -5.82737e-09 2.44015e-08
7.23351e-07 -6.37314e-09 3.31912e-08
7.75747e-07 -7.69636e-09 4.56112e-08
7.88715e-07 -7.87003e-09 4.54358e-08
7.23595e-07 -7.01399e-09 4.10757e-08
7.30642e-07 -6.47282e-09 3.29577e-08
7.41383e-07 -5.91517e-09 2.41381e-08
7.53178e-07 -5.35707e-09 1.72587e-08
7.39442e-07 -7.1955e-09 4.25077e-08
7.54258e-07 -7.3758e-09 4.39923e-08
7.63068e-07 -7.51581e-09 4.44759e-08
-2.33961e-07 1.898e-05 -1.20045e-06
-1.47751e-07 1.71711e-05 -1.09e-06
-1.14933e-07 1.51707e-05 -1.0141e-06
7.47147e-07 -6.64548e-09 3.34361e-08
7.57394e-07 -6.06226e-09 2.46512e-08
7.6926e-07 -5.48986e-09 1.80736e-08
-2.34715e-07 1.89677e-05 -1.20494e-06
-1.50366e-07 1.71604e-05 -1.08861e-06
-1.1826e-07 1.51603e-05 -1.01563e-06
7.72635e-07 -6.21511e-09 2.51354e-08
7.84772e-07 -5.62617e-09 1.88282e-08
7.6229e-07 -6.80835e-09 3.43398e-08
-2.36861e-07 1.89548e-05 -1.2055e-06
-1.20746e-07 1.51492e-05 -1.01882e-06
-1.51592e-07 1.71486e-05 -1.09186e-06
7.71832e-07 -6.92617e-09 3.39468e-08
7.81563e-07 -6.3266e-09 2.54001e-08
7.93285e-07 -5.72232e-09 1.92384e-08
-2.37066e-07 1.8942e-05 -1.20659e-06
-1.51095e-07 1.71365e-05 -1.10027e-06
-1.17937e-07 1.51385e-05 -1.01523e-06
7.94232e-07 -6.45904e-09 2.55693e-08
8.06005e-07 -5.84002e-09 1.98049e-08
7.84724e-07 -7.08552e-09 3.45224e-08
-2.4117e-07 1.89293e-05 -1.21699e-06
7.98119e-07 -7.26842e-09 3.39311e-08
-1.18977e-07 1.51283e-05 -1.00882e-06
8.07822e-07 -6.62821e-09 2.54467e-08
8.19275e-07 -5.98364e-09 2.00091e-08
-1.52362e-07 1.71244e-05 -1.10897e-06
-1.23652e-07 1.51174e-05 -1.00823e-06
-4.02706e-08 8.80295e-06 -6.07375e-07
7.67908e-07 -3.27807e-09 1.39335e-08
7.77666e-07 -2.76625e-09 1.31148e-08
7.55124e-07 -3.84216e-09 1.11695e-08
7.43576e-07 -4.46978e-09 1.15381e-08
7.79143e-07 -3.3379e-09 1.43173e-08
7.88346e-07 -2.81171e-09 1.38466e-08
7.67017e-07 -3.92171e-09 1.15117e-08
7.56354e-07 -4.57838e-09 1.18461e-08
-4.11115e-08 1.00931e-05 -6.82637e-07
-5.18738e-08 1.15679e-05 -7.83496e-07
-7.63912e-08 1.32729e-05 -8.94432e-07
-3.96844e-08 8.79673e-06 -6.08871e-07
-4.15598e-08 1.00862e-05 -6.83443e-07
-5.40023e-08 1.15599e-05 -7.86659e-07
-7.78801e-08 1.32639e-05 -8.95794e-07
7.75177e-07 -3.97629e-09 1.20248e-08
7.87492e-07 -3.39457e-09 1.47732e-08
7.97053e-07 -2.86215e-09 1.44067e-08
7.64369e-07 -4.65104e-09 1.21161e-08
-7.51806e-08 1.32455e-05 -9.02493e-07
-7.85068e-08 1.32356e-05 -9.04786e-07
-7.45907e-08 1.32256e-05 -9.01818e-07
-7.8033e-08 1.32165e-05 -8.93605e-07
-8.0724e-08 1.32065e-05 -8.96211e-07
-3.87209e-08 1.0079e-05 -6.84503e-07
-3.80438e-08 8.79012e-06 -6.11887e-07
-5.1409e-08 1.15517e-05 -7.89887e-07
-7.22856e-08 1.3255e-05 -8.98849e-07
8.04188e-07 -3.47627e-09 1.53844e-08
8.13852e-07 -2.92706e-09 1.521e-08
7.81041e-07 -4.78042e-09 1.26027e-08
7.91685e-07 -4.07932e-09 1.26634e-08
-3.77708e-08 8.78384e-06 -6.11062e-07
-5.27703e-08 1.15437e-05 -7.92665e-07
-3.85351e-08 1.00716e-05 -6.88503e-07
8.30943e-07 -2.99578e-09 1.61013e-08
8.08222e-07 -4.18075e-09 1.32973e-08
8.20894e-07 -3.57123e-09 1.59913e-08
7.97061e-07 -4.92017e-09 1.30821e-08
-3.88942e-08 1.00641e-05 -6.91103e-07
-3.74935e-08 8.777e-06 -6.1218e-07
-5.33477e-08 1.15347e-05 -7.97172e-07
8.28799e-07 -3.62442e-09 1.61945e-08
8.38757e-07 -3.06056e-09 1.61929e-08
8.05671e-07 -5.00365e-09 1.3104e-08
8.16221e-07 -4.24889e-09 1.34446e-08
-3.56984e-08 8.77022e-06 -6.11657e-07
-4.96707e-08 1.15262e-05 -7.87791e-07
-3.55439e-08 1.00562e-05 -6.91611e-07
8.52404e-07 -3.12641e-09 1.67885e-08
-3.78821e-08 1.00491e-05 -6.88149e-07
-3.68233e-08 8.76374e-06 -6.07931e-07
8.29564e-07 -4.34488e-09 1.37194e-08
8.42078e-07 -3.71079e-09 1.64932e-08
-5.11178e-08 1.1518e-05 -7.81763e-07
8.18384e-07 -5.11634e-09 1.3577e-08
8.55755e-07 -3.80097e-09 1.66969e-08
8.66077e-07 -3.2112e-09 1.71313e-08
8.31714e-07 -5.22994e-09 1.3811e-08
8.43024e-07 -4.45837e-09 1.38149e-08
-3.83197e-08 8.75679e-06 -6.07045e-07
-5.44724e-08 1.15093e-05 -7.82155e-07
-3.86812e-08 1.00411e-05 -6.88931e-07
-2.51931e-07 1.89168e-05 -1.22611e-06
-1.54344e-07 1.71122e-05 -1.10451e-06
8.24965e-07 -6.80135e-09 2.52312e-08
8.3648e-07 -6.13123e-09 1.99902e-08
8.05552e-07 -8.07352e-09 4.60917e-08
8.15234e-07 -7.46955e-09 3.41096e-08
-1.19e-07 1.5106e-05 -1.00549e-06
-1.5218e-07 1.70997e-05 -1.10853e-06
9.06563e-07 -9.38373e-09 4.42581e-08
9.22808e-07 -9.59572e-09 4.3759e-08
-2.45014e-07 1.89025e-05 -1.22852e-06
8.29535e-07 -7.6455e-09 3.38508e-08
8.38851e-07 -6.9564e-09 2.54328e-08
8.50406e-07 -6.27272e-09 2.00902e-08
8.19512e-07 -8.227e-09 4.65516e-08
8.39622e-07 -8.46282e-09 4.65194e-08
8.55923e-07 -8.67978e-09 4.61598e-08
8.71703e-07 -8.90861e-09 4.60899e-08
8.90196e-07 -9.15269e-09 4.45201e-08
-2.40681e-07 1.88893e-05 -1.21773e-06
-1.48261e-07 1.70878e-05 -1.10047e-06
-1.10989e-07 1.50946e-05 -9.94235e-07
8.58168e-07 -7.145e-09 2.5431e-08
8.69231e-07 -6.4443e-09 2.02281e-08
8.498e-07 -7.88206e-09 3.43827e-08
-2.2539e-07 1.88751e-05 -1.20287e-06
-1.05619e-07 1.50833e-05 -9.85783e-07
-1.42574e-07 1.70749e-05 -1.0965e-06
8.74743e-07 -7.3306e-09 2.52884e-08
8.85754e-07 -6.60543e-09 2.02588e-08
8.66488e-07 -8.09787e-09 3.41845e-08
-2.2555e-07 1.88618e-05 -1.19136e-06
-1.06752e-07 1.50715e-05 -9.90242e-07
-1.42666e-07 1.7062e-05 -1.10168e-06
9.02555e-07 -6.78424e-09 1.94867e-08
8.82435e-07 -8.28765e-09 3.36901e-08
8.91527e-07 -7.52578e-09 2.52131e-08
-2.39269e-07 1.88478e-05 -1.19979e-06
-1.49439e-07 1.70496e-05 -1.10371e-06
-1.08997e-07 1.506e-05 -9.80723e-07
9.01365e-07 -8.533e-09 3.33895e-08
9.1139e-07 -7.74683e-09 2.46109e-08
9.22148e-07 -6.97125e-09 1.92412e-08
-2.37158e-07 1.8833e-05 -1.18327e-06
-1.06778e-07 1.50478e-05 -9.76792e-07
-1.4108e-07 1.70357e-05 -1.09847e-06
-2.31241e-07 1.88173e-05 -1.17784e-06
9.17065e-07 -8.73235e-09 3.27877e-08
9.28303e-07 -7.94011e-09 2.46149e-08
9.38568e-07 -7.14398e-09 1.88818e-08
-1.05094e-07 1.50353e-05 -9.7173e-07
-1.40088e-07 1.70214e-05 -1.09821e-06
9.33073e-07 -8.93825e-09 3.31408e-08
9.45107e-07 -8.12937e-09 2.42514e-08
9.55191e-07 -7.31606e-09 1.85654e-08
8.84169e-07 -3.29917e-09 1.73673e-08
8.60795e-07 -4.58727e-09 1.3609e-08
8.73541e-07 -3.91657e-09 1.67082e-08
8.48927e-07 -5.36853e-09 1.38462e-08
-7.71975e-08 1.31962e-05 -8.94043e-07
-3.59345e-08 1.0033e-05 -6.88141e-07
-3.60493e-08 8.74939e-06 -6.07344e-07
-4.869e-08 1.14999e-05 -7.80415e-07
8.63019e-07 -5.47583e-09 1.4113e-08
8.88318e-07 -4.00695e-09 1.66983e-08
8.99002e-07 -3.38629e-09 1.75911e-08
8.75275e-07 -4.70578e-09 1.35605e-08
-7.66172e-08 1.31546e-05 -8.73698e-07
-7.33345e-08 1.31432e-05 -8.6799e-07
-7.32758e-08 1.31315e-05 -8.6182e-07
-7.21626e-08 1.31858e-05 -8.82853e-07
-3.46054e-08 8.74232e-06 -6.03553e-07
-4.48258e-08 1.1491e-05 -7.73187e-07
-3.29345e-08 1.00249e-05 -6.84716e-07
-6.87836e-08 1.31756e-05 -8.76083e-07
-7.10944e-08 1.31649e-05 -8.79789e-07
8.81258e-07 -5.63175e-09 1.46467e-08
8.93753e-07 -4.84194e-09 1.34711e-08
9.06415e-07 -4.12476e-09 1.6847e-08
9.16997e-07 -3.48458e-09 1.79111e-08
-3.03742e-08 1.00168e-05 -6.78166e-07
-3.14069e-08 8.73504e-06 -5.96035e-07
-4.03425e-08 1.14816e-05 -7.69545e-07
8.97948e-07 -5.76386e-09 1.46948e-08
9.23781e-07 -4.24006e-09 1.65078e-08
9.34445e-07 -3.57336e-09 1.77772e-08
9.10715e-07 -4.97998e-09 1.3025e-08
-3.24417e-08 8.7278e-06 -5.92434e-07
-4.35804e-08 1.14724e-05 -7.73033e-07
-3.04842e-08 1.00083e-05 -6.76939e-07
9.15104e-07 -5.93221e-09 1.4538e-08
9.41769e-07 -4.37564e-09 1.64076e-08
9.52683e-07 -3.68574e-09 1.76814e-08
9.28363e-07 -5.13758e-09 1.26467e-08
-3.45087e-08 8.72053e-06 -5.89486e-07
-4.582e-08 1.14632e-05 -7.72728e-07
-3.23821e-08 1.00001e-05 -6.74275e-07
9.3499e-07 -6.08946e-09 1.43884e-08
9.73519e-07 -3.78759e-09 1.75699e-08
9.48795e-07 -5.29484e-09 1.19642e-08
9.62333e-07 -4.51402e-09 1.62716e-08
-3.15389e-08 9.99137e-06 -6.71287e-07
-3.29573e-08 8.71253e-06 -5.86924e-07
-4.22168e-08 1.1453e-05 -7.71099e-07
9.51501e-07 -6.24597e-09 1.43204e-08
9.79496e-07 -4.63265e-09 1.59924e-08
9.90618e-07 -3.90036e-09 1.73404e-08
9.65617e-07 -5.4483e-09 1.13718e-08
-3.48778e-08 8.70477e-06 -5.86771e-07
-4.37092e-08 1.14432e-05 -7.72649e-07
-3.14632e-08 9.98232e-06 -6.7124e-07
9.68142e-07 -6.40183e-09 1.44682e-08
9.82961e-07 -5.59659e-09 1.10221e-08
9.967e-07 -4.76306e-09 1.58244e-08
1.00806e-06 -4.01991e-09 1.71322e-08
-6.63074e-09 5.43499e-06 -3.75679e-07
-9.82528e-09 4.35167e-06 -3.03752e-07
-8.39537e-09 6.52206e-06 -4.52753e-07
7.85561e-07 -2.18229e-09 1.13305e-08
7.92146e-07 -1.72081e-09 9.86799e-09
7.99406e-07 -1.43956e-09 8.97284e-09
-1.2703e-08 7.63191e-06 -5.23684e-07
7.96304e-07 -2.22824e-09 1.14073e-08
8.09543e-07 -1.46377e-09 9.15622e-09
8.02247e-07 -1.75886e-09 1.03728e-08
-1.2361e-08 7.6264e-06 -5.2585e-07
-7.19532e-09 6.51733e-06 -4.55731e-07
-5.80576e-09 5.43115e-06 -3.76015e-07
-9.60127e-09 4.34861e-06 -3.04254e-07
8.05331e-07 -2.27099e-09 1.16287e-08
8.11891e-07 -1.788e-09 1.05634e-08
8.1902e-07 -1.49315e-09 9.31747e-09
-6.29533e-09 6.51255e-06 -4.5652e-07
-5.25953e-09 5.4272e-06 -3.76551e-07
-9.34741e-09 4.34545e-06 -3.04623e-07
-1.16426e-08 7.62068e-06 -5.28845e-07
8.22628e-07 -2.33434e-09 1.18224e-08
8.29248e-07 -1.83314e-09 1.08377e-08
8.36396e-07 -1.52934e-09 9.44139e-09
-1.25127e-08 7.61511e-06 -5.28484e-07
-5.23932e-09 6.50784e-06 -4.55754e-07
-4.32551e-09 5.42324e-06 -3.75872e-07
-9.1085e-09 4.34231e-06 -3.04519e-07
8.39981e-07 -2.40015e-09 1.21763e-08
8.46815e-07 -1.88624e-09 1.12674e-08
8.54114e-07 -1.57586e-09 9.69055e-09
-4.31816e-09 6.50294e-06 -4.5573e-07
-3.78441e-09 5.41914e-06 -3.76531e-07
-9.1064e-09 4.33905e-06 -3.05339e-07
-1.2409e-08 7.60915e-06 -5.29921e-07
8.48224e-07 -2.45294e-09 1.18007e-08
8.55243e-07 -1.92783e-09 1.11382e-08
8.62717e-07 -1.60827e-09 9.50562e-09
-1.14512e-08 7.60325e-06 -5.29088e-07
-3.20728e-09 6.49791e-06 -4.53853e-07
8.61611e-07 -2.52172e-09 1.18929e-08
8.68761e-07 -1.98175e-09 1.12952e-08
8.76317e-07 -1.65329e-09 9.49711e-09
-2.55533e-09 5.41484e-06 -3.76007e-07
-8.43926e-09 4.33556e-06 -3.0438e-07
-1.32461e-08 7.59749e-06 -5.26879e-07
-2.88394e-09 6.49302e-06 -4.51054e-07
-2.76052e-09 5.41083e-06 -3.74801e-07
-8.72198e-09 4.33234e-06 -3.03423e-07
8.75792e-07 -2.59365e-09 1.16876e-08
8.82998e-07 -2.03572e-09 1.10022e-08
8.90623e-07 -1.6946e-09 9.26736e-09
-1.53428e-08 7.59142e-06 -5.25426e-07
-8.19627e-09 4.32867e-06 -3.0404e-07
-2.3042e-09 5.40633e-06 -3.75154e-07
-2.1727e-09 6.48771e-06 -4.50873e-07
-2.31343e-09 2.17762e-06 -1.51321e-07
8.09435e-07 -6.26754e-10 8.74846e-09
-8.71642e-10 3.26584e-06 -2.27053e-07
-3.87247e-10 1.08874e-06 -7.53669e-08
8.04629e-07 -1.26298e-09 4.88131e-09
8.11687e-07 -4.30666e-10 6.3139e-09
8.12324e-07 -3.28524e-10 -1.86876e-09
8.19412e-07 -6.41019e-10 8.78373e-09
8.14744e-07 -1.29303e-09 5.11504e-09
8.21597e-07 -4.35836e-10 6.48339e-09
8.22156e-07 -3.2594e-10 -1.87226e-09
-5.09371e-10 3.26361e-06 -2.27124e-07
-2.1773e-09 2.17609e-06 -1.51479e-07
-3.86437e-10 1.088e-06 -7.54017e-08
8.24842e-07 -1.3193e-09 5.28175e-09
8.29234e-07 -6.56715e-10 8.91346e-09
8.31821e-07 -4.41303e-10 6.69745e-09
8.32363e-07 -3.24663e-10 -1.83195e-09
-2.64462e-10 3.26126e-06 -2.27346e-07
-2.05444e-09 2.17453e-06 -1.51601e-07
-3.70509e-10 1.08721e-06 -7.54676e-08
8.46782e-07 -6.76029e-10 9.0403e-09
8.42023e-07 -1.35406e-09 5.64213e-09
8.49074e-07 -4.54296e-10 6.95423e-09
8.49592e-07 -3.32127e-10 -1.88604e-09
6.30269e-11 3.25888e-06 -2.27724e-07