# vtk DataFile Version 3.0
vtk output
ASCII
DATASET POLYDATA
POINTS 8080 float
0.189093 0.399949 -0.02264
0.199198 0.404906 -0.0226485
0.369785 0.4097 -0.0222274
0.450037 0.409701 -0.0222445
0.470025 0.409694 -0.0222049
0.490015 0.409692 -0.0222213
0.189132 0.389945 -0.0220264
0.199233 0.394906 -0.022008
0.209331 0.399857 -0.0220422
0.219423 0.404809 -0.0221682
0.259727 0.40497 -0.0219701
0.319867 0.404799 -0.0220154
0.380046 0.40479 -0.0219969
0.440031 0.404712 -0.0219356
0.229533 0.399767 -0.0216569
0.239616 0.404718 -0.0219187
0.279749 0.404906 -0.0218239
0.299724 0.404848 -0.0217784
0.33985 0.404754 -0.0219238
0.359803 0.404717 -0.0218855
0.40002 0.404756 -0.0219118
0.419997 0.40473 -0.0218612
0.460003 0.404696 -0.0219056
0.479986 0.40469 -0.0219069
0.810907 0.39995 -0.02264
0.800802 0.404906 -0.0226481
0.509985 0.409692 -0.0222216
0.529975 0.409694 -0.0222049
0.549963 0.409701 -0.0222443
0.630215 0.409701 -0.0222267
0.500009 0.404695 -0.0219237
0.559969 0.404712 -0.0219353
0.619954 0.404789 -0.0219966
0.680132 0.404799 -0.0220149
0.740273 0.40497 -0.0219699
0.810868 0.389945 -0.0220263
0.800767 0.394906 -0.0220079
0.790669 0.399857 -0.0220421
0.780577 0.40481 -0.0221676
0.520014 0.40469 -0.0219071
0.539997 0.404696 -0.0219055
0.580003 0.40473 -0.0218609
0.59998 0.404756 -0.0219115
0.640197 0.404717 -0.0218849
0.66015 0.404754 -0.0219232
0.700276 0.404849 -0.021778
0.72025 0.404907 -0.0218236
0.770467 0.399767 -0.0216567
0.760384 0.404718 -0.0219179
0.118288 0.525115 -0.0257296
0.118316 0.51507 -0.0252167
0.108264 0.53018 -0.0248822
0.118349 0.505022 -0.0246829
0.108299 0.520128 -0.024373
0.118397 0.494975 -0.0241634
0.108343 0.510077 -0.0238675
0.098322 0.525182 -0.0233287
0.118428 0.484964 -0.0236084
0.108368 0.50004 -0.0233571
0.0983479 0.51514 -0.0228336
0.118477 0.474972 -0.0230232
0.108398 0.490021 -0.0228665
0.0983737 0.505106 -0.0223383
0.118518 0.464985 -0.0224444
0.108436 0.480025 -0.022309
0.0883766 0.530272 -0.0218991
0.0983937 0.495059 -0.0218869
0.118579 0.454971 -0.0218874
0.108484 0.470011 -0.0217676
0.179159 0.414946 -0.0222432
0.169003 0.419988 -0.0226051
0.15884 0.425038 -0.022896
0.179103 0.424924 -0.0229829
0.148683 0.430065 -0.0230124
0.16895 0.429959 -0.0232816
0.158789 0.434994 -0.0235208
0.179068 0.434892 -0.0235998
0.168905 0.439926 -0.023892
0.148626 0.440018 -0.0236537
0.17903 0.444866 -0.0242134
0.158744 0.444955 -0.0241621
0.168869 0.449896 -0.0245319
0.148572 0.449979 -0.0242986
0.158697 0.454927 -0.0247775
0.179005 0.454843 -0.0248541
0.168836 0.459873 -0.0251771
0.148521 0.459948 -0.0249425
0.158657 0.464905 -0.0254293
0.178979 0.464826 -0.0255069
0.138336 0.464973 -0.024969
0.1688 0.469862 -0.0258391
0.14847 0.46993 -0.0255978
0.128148 0.469994 -0.0248924
0.138398 0.455002 -0.0243643
0.128249 0.460034 -0.0242056
0.138459 0.445044 -0.0237239
0.12832 0.450074 -0.0235651
0.138524 0.435095 -0.0230787
0.128394 0.440122 -0.0229174
0.138592 0.42515 -0.022454
0.148758 0.420096 -0.0223688
0.128498 0.430186 -0.0222668
0.158919 0.415048 -0.0221876
0.148841 0.410098 -0.021654
0.169078 0.409997 -0.0219004
0.13871 0.415161 -0.021721
0.128588 0.420221 -0.0216417
0.189037 0.409946 -0.0233244
0.209293 0.409849 -0.0227305
0.229506 0.409757 -0.0223407
0.249709 0.409793 -0.0222686
0.199142 0.414896 -0.023387
0.219385 0.414801 -0.0228624
0.239584 0.41471 -0.0225944
0.188965 0.419935 -0.0240383
0.209248 0.419839 -0.0234459
0.22948 0.419737 -0.0230629
0.249685 0.419818 -0.0229797
0.199085 0.424879 -0.0241217
0.219353 0.424778 -0.0236163
0.239561 0.424682 -0.0233266
0.188902 0.429899 -0.024766
0.209213 0.429804 -0.0241544
0.229454 0.429713 -0.023732
0.249659 0.429812 -0.0236312
0.199045 0.434833 -0.0247845
0.219334 0.434739 -0.0242595
0.23955 0.434651 -0.0239466
0.18885 0.439857 -0.0254378
0.209189 0.439767 -0.02481
0.229445 0.439683 -0.0243645
0.249653 0.43976 -0.0242185
0.19901 0.4448 -0.0254511
0.21932 0.444709 -0.0249077
0.239539 0.44464 -0.0245492
0.1888 0.449831 -0.0261145
0.209167 0.449744 -0.0254698
0.22944 0.449665 -0.0250033
0.249649 0.449727 -0.0248218
0.198981 0.454782 -0.026104
0.219312 0.454692 -0.025551
0.23954 0.454628 -0.0251695
0.188754 0.459813 -0.0268275
0.20915 0.459735 -0.0261226
0.229438 0.459658 -0.0256405
0.249646 0.459711 -0.025442
0.198952 0.464769 -0.0268124
0.219305 0.464688 -0.0262063
0.239542 0.464627 -0.0258054
0.188711 0.469821 -0.0274924
0.209133 0.469745 -0.0267914
0.229436 0.469665 -0.0262976
0.249648 0.46973 -0.0261062
0.158609 0.474901 -0.0260861
0.178943 0.474824 -0.0261727
0.138273 0.474963 -0.0256104
0.148414 0.479941 -0.0261979
0.168759 0.47987 -0.02649
0.128079 0.479989 -0.0255044
0.158567 0.484911 -0.0267196
0.178911 0.484831 -0.026825
0.138218 0.484969 -0.0262274
0.148371 0.489954 -0.0268061
0.168726 0.48988 -0.0271232
0.128022 0.489998 -0.0260931
0.158544 0.494937 -0.0272644
0.178894 0.494866 -0.0273938
0.138187 0.494979 -0.0267406
0.168722 0.499939 -0.0276116
0.148363 0.499973 -0.0273032
0.128008 0.499999 -0.0265142
0.158539 0.505001 -0.0277611
0.178895 0.504948 -0.027913
0.138174 0.505015 -0.027207
0.16872 0.51003 -0.0281461
0.148351 0.510039 -0.0278115
0.127985 0.51004 -0.026994
0.178899 0.51506 -0.028472
0.158537 0.515063 -0.0283177
0.138158 0.515064 -0.0277516
0.168721 0.520157 -0.028715
0.148343 0.520145 -0.0283465
0.127994 0.520127 -0.0274678
0.178905 0.525216 -0.0290683
0.158536 0.525195 -0.0288764
0.138148 0.525177 -0.0282759
0.168722 0.530334 -0.0293233
0.148337 0.530305 -0.0289084
0.127976 0.530263 -0.0279982
0.198918 0.474789 -0.0274723
0.219291 0.474707 -0.0268687
0.239537 0.474646 -0.0264584
0.188662 0.479861 -0.0281314
0.209109 0.479778 -0.0274392
0.229425 0.479694 -0.0269481
0.249644 0.479762 -0.0267603
0.198886 0.484831 -0.0281196
0.219277 0.484739 -0.0275219
0.23953 0.484673 -0.0271142
0.188621 0.489924 -0.0287746
0.209089 0.489828 -0.0280944
0.229417 0.489731 -0.0276089
0.249641 0.489803 -0.0274388
0.19887 0.494879 -0.0287007
0.219275 0.494783 -0.0281044
0.239532 0.49472 -0.0276966
0.188607 0.499989 -0.0293022
0.209094 0.499857 -0.0286454
0.229429 0.499799 -0.0281225
0.249657 0.499885 -0.0279063
0.198864 0.504972 -0.0292626
0.219286 0.504872 -0.0286441
0.239546 0.504819 -0.028223
0.18858 0.510074 -0.0299585
0.209097 0.509974 -0.0292212
0.229443 0.509923 -0.0286813
0.249675 0.510026 -0.0283989
0.198858 0.515136 -0.0298671
0.219298 0.515017 -0.0292218
0.239562 0.514969 -0.0287908
0.188561 0.520275 -0.0305964
0.209102 0.520156 -0.02983
0.229459 0.520105 -0.0292823
0.249691 0.520233 -0.0289117
0.198852 0.525375 -0.0305272
0.21931 0.52523 -0.0298518
0.239578 0.525179 -0.0294175
0.188541 0.530557 -0.0312965
0.209103 0.530495 -0.0305275
0.229473 0.530349 -0.0299481
0.249708 0.530523 -0.0294759
0.11823 0.535174 -0.0262592
0.0982749 0.535233 -0.0238133
0.108203 0.540225 -0.025409
0.0883249 0.540317 -0.0224262
0.118187 0.545236 -0.0268705
0.0982221 0.545281 -0.0243495
0.108147 0.550288 -0.026015
0.0882747 0.550369 -0.023011
0.118146 0.5554 -0.027461
0.0981877 0.555354 -0.0248417
0.108137 0.560446 -0.0264804
0.0882836 0.560436 -0.0234001
0.118144 0.565584 -0.0279722
0.0981949 0.565463 -0.0252565
0.108157 0.570612 -0.026983
0.0883082 0.570503 -0.0238015
0.118173 0.57566 -0.028485
0.0982103 0.575606 -0.0257474
0.108169 0.580722 -0.027541
0.0883334 0.580582 -0.0242654
0.1182 0.585736 -0.0290505
0.0982146 0.5858 -0.0263682
0.0784858 0.585694 -0.0225667
0.108171 0.590781 -0.0281552
0.0883384 0.590709 -0.024858
0.118204 0.595822 -0.0297058
0.0981965 0.595863 -0.0270486
0.0784656 0.595736 -0.023217
0.0785027 0.575632 -0.02207
0.078505 0.565563 -0.0216904
0.0587532 0.656333 -0.0221618
0.0587887 0.646329 -0.021823
0.108147 0.600875 -0.0289092
0.0882568 0.60092 -0.025712
0.118159 0.605941 -0.0305739
0.0981111 0.605924 -0.0279134
0.0783725 0.605835 -0.0240875
0.108052 0.610984 -0.029871
0.0881384 0.610978 -0.0266852
0.0685607 0.610958 -0.0223871
0.118043 0.616087 -0.0316519
0.097993 0.616033 -0.0289907
0.0782156 0.61606 -0.0252233
0.107944 0.621166 -0.0308561
0.0880213 0.621088 -0.0276385
0.0683569 0.620943 -0.0233127
0.117951 0.626332 -0.0325704
0.0978851 0.626232 -0.0298505
0.0780999 0.626133 -0.0260548
0.107835 0.63139 -0.031817
0.087906 0.631266 -0.0285287
0.0682584 0.631206 -0.0242101
0.117853 0.636592 -0.033567
0.0977676 0.636422 -0.0307961
0.0779932 0.636259 -0.0269269
0.107735 0.641658 -0.0327654
0.0877884 0.64143 -0.0294214
0.0681685 0.64125 -0.0249649
0.117766 0.646908 -0.034512
0.097676 0.646664 -0.0316833
0.0778991 0.64641 -0.0277351
0.107657 0.651957 -0.0336087
0.0877033 0.651622 -0.0301981
0.0681135 0.651363 -0.0256027
0.117677 0.657278 -0.0354142
0.0975973 0.656937 -0.0324462
0.0778121 0.656567 -0.0284003
0.158517 0.535448 -0.0294845
0.178898 0.535407 -0.0297211
0.138125 0.535342 -0.0288263
0.168698 0.540548 -0.0299986
0.148305 0.54051 -0.0295254
0.127907 0.540454 -0.0285832
0.158494 0.545571 -0.0301353
0.178885 0.545508 -0.0303893
0.138089 0.545632 -0.0294366
0.148274 0.550622 -0.0301738
0.168685 0.550557 -0.0306333
0.127868 0.550709 -0.0292132
0.178886 0.55556 -0.0309371
0.158492 0.555647 -0.0307065
0.138077 0.555712 -0.0300229
0.148294 0.560711 -0.0307058
0.168712 0.560661 -0.031117
0.127876 0.560789 -0.0297871
0.178918 0.565675 -0.031379
0.158519 0.565752 -0.0312074
0.138095 0.565807 -0.0305716
0.148315 0.570809 -0.031227
0.168741 0.570769 -0.031591
0.127888 0.570853 -0.0303273
0.178952 0.575791 -0.0318267
0.158548 0.575862 -0.0316984
0.138117 0.575913 -0.0310872
0.168766 0.580863 -0.0320737
0.148341 0.580924 -0.0317366
0.127908 0.580962 -0.0308406
0.178977 0.585917 -0.032353
0.138126 0.586003 -0.0316503
0.158567 0.585986 -0.0322588
0.168776 0.590996 -0.0326907
0.148343 0.591057 -0.0323692
0.127904 0.591097 -0.0314623
0.158546 0.59611 -0.0329776
0.178975 0.596063 -0.0330675
0.1381 0.596157 -0.0323695
0.198837 0.535557 -0.0312085
0.219311 0.535507 -0.0305464
0.239584 0.535444 -0.0301161
0.188506 0.540627 -0.0319553
0.209093 0.540569 -0.0311734
0.229471 0.540492 -0.0306181
0.249696 0.540736 -0.0301439
0.198821 0.545646 -0.0318678
[...]
POINT_DATA 8080
VECTORS alpha float
4.44765e-06 -1.99467e-08 1.76223e-07
-1.8552e-08 1.64775e-05 -1.14142e-06
5.81085e-06 -9.20398e-09 -7.96559e-09
6.08121e-06 -3.04861e-09 2.08908e-08
6.11272e-06 -1.43085e-09 3.49619e-09
6.12912e-06 2.13387e-10 -1.36083e-08
4.28569e-06 -1.84539e-08 1.77163e-07
-1.82227e-08 1.6578e-05 -1.13843e-06
4.63269e-06 -2.00728e-08 1.25888e-07
6.6845e-09 1.54388e-05 -1.06052e-06
1.12438e-08 1.21875e-05 -8.76928e-07
1.15195e-08 7.8743e-06 -5.65881e-07
4.41451e-09 5.00867e-06 -3.57334e-07
1.6812e-09 2.49179e-06 -1.78832e-07
4.80409e-06 -1.94306e-08 6.41777e-08
2.69571e-08 1.38825e-05 -9.44217e-07
1.60616e-08 1.05439e-05 -7.55595e-07
1.82474e-08 9.10003e-06 -6.48099e-07
1.02283e-08 6.81694e-06 -4.91226e-07
8.42904e-09 5.87745e-06 -4.23457e-07
2.44596e-09 4.16066e-06 -2.98265e-07
8.1247e-10 3.3243e-06 -2.39017e-07
5.98018e-10 1.65928e-06 -1.19225e-07
1.68174e-11 8.29067e-07 -5.95237e-08
4.44933e-06 1.99471e-08 -1.76308e-07
-1.85176e-08 -1.64777e-05 1.14172e-06
6.12913e-06 -2.15193e-10 1.36882e-08
6.11274e-06 1.42874e-09 -3.42634e-09
6.08124e-06 3.04648e-09 -2.08331e-08
5.81119e-06 9.20473e-09 7.94482e-09
1.78745e-14 6.12517e-11 -4.38369e-12
1.67947e-09 -2.49175e-06 1.78856e-07
4.42206e-09 -5.00877e-06 3.57387e-07
1.15178e-08 -7.87453e-06 5.65922e-07
1.12499e-08 -1.21878e-05 8.76981e-07
4.28679e-06 1.84522e-08 -1.77223e-07
-1.82129e-08 -1.65783e-05 1.13857e-06
4.63432e-06 2.00706e-08 -1.25955e-07
6.7269e-09 -1.54391e-05 1.06079e-06
1.6114e-11 -8.28954e-07 5.95193e-08
5.96722e-10 -1.6592e-06 1.19232e-07
8.13438e-10 -3.32431e-06 2.39054e-07
2.44962e-09 -4.16072e-06 2.98312e-07
8.42398e-09 -5.87761e-06 4.23489e-07
1.02247e-08 -6.81713e-06 4.91262e-07
1.82484e-08 -9.10028e-06 6.48132e-07
1.6065e-08 -1.05442e-05 7.55636e-07
4.80565e-06 1.94256e-08 -6.42242e-08
2.70026e-08 -1.38827e-05 9.44481e-07
1.43582e-08 1.10137e-05 -6.1502e-07
1.27135e-08 1.10772e-05 -6.34236e-07
4.12099e-06 -2.07745e-08 -5.07e-07
9.90598e-09 1.11756e-05 -6.57414e-07
4.1979e-06 -2.0522e-08 -5.08401e-07
1.618e-09 1.12964e-05 -6.82699e-07
4.31965e-06 -2.20343e-08 -5.1294e-07
-1.11239e-08 1.18725e-05 -6.27005e-07
-3.11071e-09 1.14374e-05 -7.04226e-07
4.40578e-06 -2.28438e-08 -5.11792e-07
-1.29424e-08 1.19201e-05 -6.43857e-07
-1.15409e-08 1.15885e-05 -7.19339e-07
4.4835e-06 -2.47697e-08 -5.08115e-07
-1.61953e-08 1.20015e-05 -6.53226e-07
-1.72227e-08 1.17437e-05 -7.3109e-07
4.49494e-06 -2.43203e-08 -4.96447e-07
4.02998e-06 -2.1323e-08 -6.91588e-07
-2.18761e-08 1.21022e-05 -6.62477e-07
-2.71668e-08 1.18886e-05 -7.39992e-07
4.47504e-06 -2.53442e-08 -4.80732e-07
1.47922e-08 1.6487e-05 -1.16051e-06
4.67932e-06 -2.52186e-08 -1.66394e-08
-4.8557e-09 1.54421e-05 -1.09135e-06
2.64486e-08 1.63567e-05 -1.15834e-06
4.62733e-06 -2.40428e-08 -1.05959e-07
4.90045e-06 -2.60813e-08 -1.75622e-08
3.34973e-09 1.5313e-05 -1.07933e-06
3.47725e-08 1.6229e-05 -1.15131e-06
5.08732e-06 -2.38135e-08 -1.7705e-08
4.79205e-06 -2.22618e-08 -1.08793e-07
3.32512e-08 1.6097e-05 -1.14476e-06
4.44132e-09 1.51749e-05 -1.07736e-06
5.2901e-06 -2.27481e-08 -1.65594e-08
4.96597e-06 -2.08311e-08 -1.12578e-07
-4.43197e-11 1.50285e-05 -1.06729e-06
2.80978e-08 1.59472e-05 -1.14912e-06
5.46227e-06 -2.18537e-08 -1.70213e-08
5.11021e-06 -1.95284e-08 -1.17411e-07
-5.02255e-09 1.48645e-05 -1.06599e-06
2.07592e-08 1.57821e-05 -1.15225e-06
-2.55432e-08 1.31963e-05 -9.28808e-07
5.59455e-06 -2.13543e-08 -1.84769e-08
5.21782e-06 -1.85558e-08 -1.22206e-07
4.8568e-06 -1.54926e-08 -2.39042e-07
-2.1926e-08 1.33491e-05 -9.4365e-07
4.76473e-06 -1.68206e-08 -2.34155e-07
-2.05754e-08 1.34949e-05 -9.50419e-07
4.64343e-06 -1.84979e-08 -2.25318e-07
-2.2194e-08 1.36296e-05 -9.56707e-07
4.49491e-06 -2.0167e-08 -2.16822e-07
-2.98868e-08 1.37558e-05 -9.72479e-07
4.43145e-06 -2.39758e-08 -9.76321e-08
4.34964e-06 -2.25801e-08 -2.10395e-07
-1.41376e-08 1.55719e-05 -1.10393e-06
4.19269e-06 -2.09699e-08 -8.94563e-08
4.41827e-06 -2.24593e-08 -1.27157e-08
-4.91875e-08 1.38847e-05 -9.76712e-07
4.17747e-06 -2.23691e-08 -1.96362e-07
4.64508e-06 -2.14429e-08 1.82374e-07
4.84004e-06 -2.17014e-08 1.32093e-07
5.01856e-06 -2.08745e-08 6.91972e-08
5.1766e-06 -2.2265e-08 3.76551e-08
-1.16182e-08 1.63647e-05 -1.15016e-06
1.15543e-08 1.53383e-05 -1.07037e-06
3.10507e-08 1.37923e-05 -9.56068e-07
4.93366e-06 -2.27959e-08 1.91966e-07
5.14403e-06 -2.31136e-08 1.41841e-07
5.33502e-06 -2.2971e-08 8.01874e-08
5.50086e-06 -2.51084e-08 4.72659e-08
-7.65181e-09 1.62429e-05 -1.15339e-06
1.63143e-08 1.52238e-05 -1.0788e-06
3.52804e-08 1.36907e-05 -9.66024e-07
5.18549e-06 -2.29809e-08 2.06789e-07
5.41502e-06 -2.34054e-08 1.55043e-07
5.62112e-06 -2.24735e-08 8.87312e-08
5.7983e-06 -2.48862e-08 6.10242e-08
-3.90794e-09 1.61332e-05 -1.14663e-06
1.98396e-08 1.51226e-05 -1.07565e-06
3.84817e-08 1.36001e-05 -9.65904e-07
5.40319e-06 -2.1359e-08 2.19534e-07
5.65261e-06 -2.19637e-08 1.67724e-07
5.87602e-06 -2.10174e-08 1.00759e-07
6.06637e-06 -2.29141e-08 7.73144e-08
-2.20855e-09 1.60124e-05 -1.14325e-06
2.09096e-08 1.50116e-05 -1.0748e-06
3.75036e-08 1.35058e-05 -9.64444e-07
5.64439e-06 -2.00061e-08 2.33481e-07
5.92224e-06 -2.09128e-08 1.81664e-07
6.17215e-06 -2.01328e-08 1.13712e-07
6.38467e-06 -2.14784e-08 9.49599e-08
-1.50595e-09 1.58759e-05 -1.13869e-06
2.02338e-08 1.48856e-05 -1.0739e-06
3.60268e-08 1.33935e-05 -9.67637e-07
5.85659e-06 -1.95986e-08 2.49291e-07
6.16503e-06 -1.99506e-08 1.9201e-07
6.44584e-06 -1.95216e-08 1.25485e-07
6.68554e-06 -2.01847e-08 1.13129e-07
-9.57755e-10 1.57175e-05 -1.13663e-06
1.8713e-08 1.4742e-05 -1.07392e-06
3.36045e-08 1.32646e-05 -9.71716e-07
6.02694e-06 -1.88269e-08 2.54267e-07
6.3673e-06 -1.9535e-08 1.99947e-07
6.68121e-06 -1.95634e-08 1.35434e-07
6.9506e-06 -1.79431e-08 1.31804e-07
-1.1262e-09 1.46879e-05 -1.04652e-06
2.22679e-08 1.56022e-05 -1.13407e-06
-1.97678e-08 1.30299e-05 -9.08309e-07
5.24464e-06 -1.70429e-08 -1.29651e-07
5.63678e-06 -2.14602e-08 -2.26116e-08
4.8784e-06 -1.45807e-08 -2.4647e-07
1.14932e-08 1.45038e-05 -1.0153e-06
3.29755e-08 1.5411e-05 -1.10072e-06
-6.27513e-09 1.286e-05 -8.7975e-07
5.21699e-06 -1.73609e-08 -1.36061e-07
5.61295e-06 -2.23978e-08 -2.86943e-08
4.85628e-06 -1.42884e-08 -2.53412e-07
2.26979e-08 1.4325e-05 -9.86265e-07
4.22847e-08 1.52191e-05 -1.06888e-06
5.98317e-09 1.27009e-05 -8.52786e-07
5.45317e-06 -1.61403e-08 -3.48191e-08
5.076e-06 -1.22434e-08 -1.3776e-07
4.74279e-06 -8.25572e-09 -2.56452e-07
2.92239e-08 1.41628e-05 -9.71899e-07
4.72881e-08 1.5036e-05 -1.05183e-06
1.35575e-08 1.25644e-05 -8.39037e-07
5.23514e-06 -1.18429e-08 -3.83689e-08
4.89515e-06 -7.94527e-09 -1.38227e-07
4.60783e-06 -3.87238e-09 -2.55368e-07
4.79614e-08 1.48664e-05 -1.03924e-06
3.28494e-08 1.40157e-05 -9.61901e-07
1.7534e-08 1.2448e-05 -8.34566e-07
4.90596e-06 -9.19876e-09 -4.18238e-08
4.63045e-06 -5.2786e-09 -1.36464e-07
4.41231e-06 -1.53552e-09 -2.52803e-07
4.58053e-08 1.47239e-05 -1.0251e-06
3.32214e-08 1.39049e-05 -9.4986e-07
1.97845e-08 1.23703e-05 -8.25861e-07
4.57066e-06 -8.31284e-09 -4.57038e-08
4.3819e-06 -4.3825e-09 -1.3573e-07
4.25284e-06 -7.86315e-10 -2.49804e-07
3.5354e-09 1.55432e-05 -1.12197e-06
2.0315e-08 1.45781e-05 -1.06356e-06
3.27712e-08 1.31162e-05 -9.65962e-07
6.09932e-06 -1.88245e-08 2.52313e-07
6.46737e-06 -2.02581e-08 2.00768e-07
6.81297e-06 -2.10281e-08 1.38611e-07
7.11428e-06 -1.67059e-08 1.42087e-07
1.25129e-08 1.53504e-05 -1.10252e-06
2.51918e-08 1.43939e-05 -1.04635e-06
3.39756e-08 1.2947e-05 -9.52876e-07
6.09553e-06 -1.98449e-08 2.46153e-07
6.48429e-06 -2.20168e-08 1.97261e-07
6.85695e-06 -2.3687e-08 1.3722e-07
7.18804e-06 -1.60553e-08 1.48697e-07
1.99695e-08 1.51636e-05 -1.08294e-06
2.88738e-08 1.421e-05 -1.02857e-06
3.42474e-08 1.27731e-05 -9.39787e-07
5.9344e-06 -1.56747e-08 2.36411e-07
6.32879e-06 -1.86126e-08 1.9821e-07
6.71501e-06 -1.87572e-08 1.37121e-07
7.06726e-06 -9.25962e-09 1.57246e-07
2.4452e-08 1.49902e-05 -1.07202e-06
3.0695e-08 1.40312e-05 -1.01719e-06
3.34423e-08 1.25971e-05 -9.32283e-07
5.69597e-06 -1.4577e-08 2.41596e-07
6.07514e-06 -1.60207e-08 1.95898e-07
6.45951e-06 -1.56101e-08 1.36613e-07
6.82115e-06 -4.95541e-09 1.59157e-07
2.69365e-08 1.4819e-05 -1.06876e-06
3.16305e-08 1.38479e-05 -1.00702e-06
3.24688e-08 1.24114e-05 -9.2139e-07
5.31478e-06 -1.41515e-08 2.28589e-07
5.6547e-06 -1.50656e-08 1.84988e-07
6.01485e-06 -1.42197e-08 1.28829e-07
6.36897e-06 -3.32563e-09 1.50756e-07
2.83519e-08 1.46608e-05 -1.06752e-06
3.17058e-08 1.36712e-05 -9.96828e-07
3.05891e-08 1.22257e-05 -9.0976e-07
4.90031e-06 -1.55374e-08 2.12754e-07
5.17359e-06 -1.4868e-08 1.64506e-07
5.48448e-06 -1.46076e-08 1.17692e-07
5.80697e-06 -3.8273e-09 1.36173e-07
2.87777e-08 1.09965e-05 -6.04659e-07
3.75217e-09 1.18627e-05 -6.10718e-07
4.24997e-06 -2.25998e-08 -5.31404e-07
4.19703e-06 -2.35294e-08 -7.34795e-07
4.73455e-08 1.1008e-05 -6.00517e-07
2.84687e-08 1.18734e-05 -5.98381e-07
4.36413e-06 -2.41962e-08 -5.53781e-07
4.36462e-06 -2.67348e-08 -7.76505e-07
6.83806e-08 1.10591e-05 -6.00643e-07
5.37025e-08 1.19138e-05 -5.8411e-07
4.67736e-06 -1.569e-08 -6.02307e-07
4.70297e-06 -1.9711e-08 -8.45253e-07
8.71444e-08 1.11395e-05 -6.12903e-07
7.65887e-08 1.19744e-05 -5.7909e-07
5.24401e-06 -8.7236e-09 -6.83722e-07
5.24754e-06 -1.27837e-08 -9.50138e-07
9.81609e-08 1.12319e-05 -6.21805e-07
8.96889e-08 1.20257e-05 -6.05981e-07
6.14397e-06 -3.75444e-09 -8.0844e-07
6.0586e-06 -4.81187e-09 -1.10596e-06
1.00283e-07 1.13087e-05 -6.50708e-07
8.73702e-08 1.20366e-05 -6.75014e-07
1.23694e-07 1.76476e-05 -8.92422e-07
7.39468e-06 6.24121e-10 -9.74829e-07
7.13731e-06 7.36565e-09 -1.31576e-06
9.41467e-08 1.13343e-05 -7.00412e-07
7.52807e-08 1.19661e-05 -7.37881e-07
9.32155e-08 1.74599e-05 -9.92452e-07
1.30441e-07 1.77282e-05 -8.30719e-07
9.57461e-08 1.77509e-05 -7.7909e-07
-3.95449e-08 2.61823e-05 -1.79714e-06
-9.18694e-08 2.75593e-05 -1.95535e-06
9.02507e-06 7.50067e-09 -1.19211e-06
8.49484e-06 2.29785e-08 -1.59859e-06
7.48367e-08 1.12602e-05 -7.85621e-07
5.8874e-08 1.17815e-05 -8.27795e-07
5.51191e-08 1.71591e-05 -1.1632e-06
1.09777e-05 2.39589e-08 -1.45352e-06
1.00731e-05 3.11173e-08 -1.91715e-06
8.93599e-06 -5.52246e-09 -2.20893e-06
4.36518e-08 1.10282e-05 -9.05195e-07
2.68038e-08 1.14235e-05 -9.44929e-07
-6.67704e-11 1.66701e-05 -1.39246e-06
1.31775e-05 5.22432e-08 -1.7553e-06
1.18031e-05 6.17256e-08 -2.26704e-06
1.02202e-05 4.07452e-08 -2.54661e-06
1.29368e-08 1.05607e-05 -9.70014e-07
3.85954e-09 1.08364e-05 -1.00261e-06
-2.92727e-08 1.59584e-05 -1.45211e-06
1.5425e-05 9.49199e-08 -2.08063e-06
1.35164e-05 1.18917e-07 -2.62831e-06
1.1446e-05 1.08003e-07 -2.91521e-06
-1.06263e-08 9.82183e-06 -9.65259e-07
-1.74955e-08 9.97504e-06 -9.89323e-07
-5.42019e-08 1.50135e-05 -1.46273e-06
1.74272e-05 1.40878e-07 -2.40844e-06
1.49508e-05 1.58943e-07 -2.93595e-06
1.23893e-05 1.45936e-07 -3.19238e-06
-2.35769e-08 8.78015e-06 -8.802e-07
-3.09311e-08 8.83346e-06 -8.9598e-07
-6.35063e-08 1.38219e-05 -1.37968e-06
1.88319e-05 1.88379e-07 -2.70517e-06
1.58151e-05 2.07661e-07 -3.17742e-06
1.28331e-05 1.96641e-07 -3.37475e-06
-2.20495e-08 7.41527e-06 -7.24178e-07
-2.76496e-08 7.41298e-06 -7.2883e-07
-5.06291e-08 1.23977e-05 -1.19619e-06
3.75297e-08 1.38406e-05 -9.43791e-07
5.07272e-08 1.46193e-05 -1.0017e-06
2.92511e-08 1.23367e-05 -8.13258e-07
4.48764e-06 -1.05197e-08 -5.38816e-08
4.38159e-06 -6.3505e-09 -1.43779e-07
4.32902e-06 -1.66548e-09 -2.59631e-07
5.62657e-08 1.38025e-05 -8.9759e-07
6.77842e-08 1.45476e-05 -9.35742e-07
4.31473e-08 1.23378e-05 -8.10438e-07
4.31971e-06 -1.16626e-08 -1.45022e-07
4.31488e-06 -1.66335e-08 -4.99599e-08
4.36669e-06 -5.87506e-09 -2.70603e-07
8.52804e-08 1.45307e-05 -8.27075e-07
7.61084e-08 1.38177e-05 -8.19467e-07
6.2807e-08 1.23779e-05 -7.53039e-07
4.48783e-06 -8.52042e-09 -1.40823e-07
4.36971e-06 -1.35232e-08 -3.95289e-08
4.62595e-06 -3.02451e-09 -2.78571e-07
1.01792e-07 1.45772e-05 -7.36245e-07
9.52817e-08 1.38907e-05 -7.32417e-07
8.30465e-08 1.24651e-05 -6.75567e-07
4.98506e-06 -6.96337e-09 -1.46752e-07
4.77435e-06 -1.26719e-08 -3.04869e-08
5.18222e-06 -4.67773e-10 -3.06595e-07
1.1064e-07 1.46826e-05 -6.99832e-07
1.06078e-07 1.40108e-05 -7.01741e-07
9.47573e-08 1.25835e-05 -6.52103e-07
5.668e-06 -1.26007e-08 -2.82593e-08
5.93184e-06 -6.45449e-09 -1.71176e-07
6.13644e-06 1.37386e-09 -3.66114e-07
1.08652e-07 1.48321e-05 -7.28891e-07
9.33991e-08 1.27042e-05 -6.87598e-07
1.04763e-07 1.41572e-05 -7.37674e-07
7.1386e-06 -1.64412e-08 -2.65087e-08
7.39009e-06 -8.49241e-09 -2.12732e-07
7.52643e-06 1.32668e-09 -4.59695e-07
8.79738e-08 1.42972e-05 -8.25834e-07
8.79515e-08 1.5002e-05 -8.25719e-07
8.14631e-08 1.2793e-05 -7.74165e-07
3.64911e-08 1.45192e-05 -1.0318e-06
3.43781e-08 1.35137e-05 -9.89662e-07
3.103e-08 1.20523e-05 -9.00814e-07
4.73538e-06 -2.00995e-08 2.09773e-07
4.92831e-06 -1.99707e-08 1.634e-07
5.16836e-06 -1.83399e-08 1.11988e-07
5.43925e-06 -8.79248e-09 1.24849e-07
5.31611e-08 1.44022e-05 -9.59621e-07
4.68902e-08 1.33705e-05 -9.10704e-07
3.93968e-08 1.18934e-05 -8.26326e-07
4.44706e-06 -2.5926e-08 2.04689e-07
4.52875e-06 -2.52425e-08 1.55759e-07
4.67004e-06 -2.3179e-08 1.05201e-07
4.85769e-06 -1.36163e-08 1.10605e-07
6.83431e-08 1.43641e-05 -8.53474e-07
5.8286e-08 1.32983e-05 -8.11347e-07
4.70127e-08 1.17921e-05 -7.37481e-07
4.37922e-06 -2.30769e-08 2.10655e-07
4.32896e-06 -2.1435e-08 1.60468e-07
4.34563e-06 -1.84144e-08 1.12052e-07
4.4269e-06 -1.07597e-08 1.02049e-07
8.51748e-08 1.44013e-05 -7.08633e-07
7.06915e-08 1.3297e-05 -6.78158e-07
5.58302e-08 1.17527e-05 -6.26262e-07
4.67704e-06 -2.36823e-08 2.28046e-07
4.49117e-06 -2.08797e-08 1.74298e-07
4.37179e-06 -1.75606e-08 1.25008e-07
4.33577e-06 -1.22973e-08 9.8039e-08
9.73463e-08 1.45016e-05 -6.29591e-07
7.98647e-08 1.33596e-05 -6.09565e-07
6.07575e-08 1.17757e-05 -5.63229e-07
5.5041e-06 -3.03034e-08 2.77919e-07
5.19066e-06 -2.39774e-08 2.10265e-07
4.93312e-06 -1.87006e-08 1.53572e-07
4.76934e-06 -1.65819e-08 1.03446e-07
1.00946e-07 1.46548e-05 -6.35037e-07
8.16996e-08 1.34828e-05 -6.10521e-07
6.05851e-08 1.18611e-05 -5.63935e-07
6.97308e-06 -3.98475e-08 3.49993e-07
6.56573e-06 -3.22699e-08 2.75538e-07
6.18907e-06 -2.35191e-08 2.08439e-07
5.9067e-06 -2.37389e-08 1.23192e-07
9.32902e-08 1.48428e-05 -7.4122e-07
7.25729e-08 1.36575e-05 -7.01258e-07
5.17875e-08 1.20021e-05 -6.48421e-07
9.43453e-06 -1.03259e-08 -2.84862e-07
9.28836e-06 -2.39083e-08 -3.11162e-08
9.40113e-06 1.96905e-09 -6.07817e-07
6.18301e-08 1.44092e-05 -1.02394e-06
5.73744e-08 1.51764e-05 -1.03866e-06
5.95328e-08 1.28173e-05 -9.48457e-07
1.20319e-05 -9.46008e-09 -4.11141e-07
1.21052e-05 -2.99251e-08 -6.0266e-08
1.17108e-05 7.85834e-09 -8.34409e-07
1.4637e-08 1.44259e-05 -1.34337e-06
5.26827e-09 1.52903e-05 -1.39821e-06
1.79045e-08 1.27124e-05 -1.21467e-06
1.5118e-05 1.10927e-08 -5.4497e-07
1.55314e-05 -1.89283e-08 -1.09196e-07
1.43897e-05 3.37523e-08 -1.05596e-06
-1.06788e-08 1.23983e-05 -1.36044e-06
-2.23344e-08 1.42572e-05 -1.55045e-06
-3.69786e-08 1.52545e-05 -1.63672e-06
1.72165e-05 9.86349e-08 -1.20308e-06
1.84533e-05 6.1542e-08 -6.38302e-07
1.93171e-05 2.06747e-08 -1.57091e-07
-7.45325e-08 1.50385e-05 -1.77614e-06
-3.31922e-08 1.18273e-05 -1.41277e-06
-5.41581e-08 1.38602e-05 -1.65967e-06
2.31573e-05 9.21015e-08 -2.89784e-07
1.98707e-05 1.74761e-07 -1.39237e-06
2.1723e-05 1.29409e-07 -7.85348e-07
-4.11936e-08 1.09496e-05 -1.34771e-06
-7.23065e-08 1.31727e-05 -1.65284e-06
-9.48507e-08 1.45506e-05 -1.80511e-06
2.1939e-05 2.43057e-07 -1.57002e-06
2.657e-05 1.5448e-07 -4.60041e-07
2.44612e-05 2.1971e-07 -9.76485e-07
-1.14762e-07 1.37325e-05 -1.73275e-06
-3.4391e-08 9.7225e-06 -1.14304e-06
-7.393e-08 1.21404e-05 -1.49421e-06
9.21455e-06 -6.19168e-08 4.44127e-07
8.77133e-06 -5.0114e-08 3.73226e-07
8.31746e-06 -3.32399e-08 3.02881e-07
7.93433e-06 -3.59858e-08 1.72244e-07
7.18689e-08 1.50529e-05 -1.01824e-06
5.17999e-08 1.38652e-05 -9.55859e-07
3.07035e-08 1.21945e-05 -8.66067e-07
1.22437e-05 -9.82975e-08 5.3012e-07
1.18498e-05 -8.10476e-08 4.87889e-07
1.1388e-05 -5.50036e-08 4.37415e-07
1.09461e-05 -6.35189e-08 2.87112e-07
2.74598e-08 1.52405e-05 -1.50915e-06
9.09546e-09 1.40888e-05 -1.40891e-06
-7.65336e-09 1.24082e-05 -1.27674e-06
1.60258e-05 -1.29377e-07 6.8981e-07
1.57759e-05 -9.94601e-08 6.39479e-07
1.53876e-05 -6.66089e-08 5.85499e-07
1.49842e-05 -8.96382e-08 4.48991e-07
-5.7578e-09 1.53211e-05 -1.81901e-06
-2.27714e-08 1.42315e-05 -1.70013e-06
-3.68715e-08 1.25861e-05 -1.52529e-06
2.03104e-05 -1.19515e-07 9.87423e-07
2.03064e-05 -9.13176e-08 8.7834e-07
2.00816e-05 -5.78745e-08 7.5997e-07
1.98166e-05 -8.16105e-08 6.1851e-07
-3.76547e-08 1.52685e-05 -2.05028e-06
-5.32799e-08 1.4279e-05 -1.92392e-06
-6.4071e-08 1.26912e-05 -1.72128e-06
2.48147e-05 -8.93858e-08 1.32726e-06
2.51878e-05 -7.09905e-08 1.14824e-06
2.52486e-05 -4.53888e-08 9.50563e-07
2.52211e-05 -4.67726e-08 8.11523e-07
-7.92022e-08 1.41611e-05 -2.03675e-06
-8.74853e-08 1.2669e-05 -1.82414e-06
-6.10122e-08 1.50043e-05 -2.13807e-06
3.03504e-05 -6.878e-08 1.1717e-06
2.90035e-05 -7.6313e-08 1.67304e-06
2.98805e-05 -7.18118e-08 1.43085e-06
3.06579e-05 -3.80411e-08 9.99646e-07
-1.03771e-07 1.24166e-05 -1.79651e-06
-7.04318e-08 1.43969e-05 -2.02286e-06
-9.00493e-08 1.37486e-05 -1.94936e-06
5.29338e-06 -1.75831e-08 4.4229e-08
5.41178e-06 -1.63784e-08 1.44481e-08
5.51769e-06 -1.44708e-08 -1.42698e-08
1.52012e-08 1.21005e-05 -8.84284e-07
1.77988e-08 1.04694e-05 -7.5918e-07
1.92101e-08 9.03357e-06 -6.50841e-07
5.62904e-06 -2.05787e-08 4.99138e-08
5.75001e-06 -1.86885e-08 1.88368e-08
5.85495e-06 -1.65046e-08 -9.92709e-09
1.73217e-08 1.2008e-05 -8.87938e-07
2.00814e-08 1.03861e-05 -7.6413e-07
2.06738e-08 8.96056e-06 -6.54287e-07
5.94476e-06 -2.15897e-08 5.80721e-08
6.07139e-06 -1.94188e-08 2.60679e-08
6.17861e-06 -1.69227e-08 -3.47307e-09
2.01527e-08 1.19383e-05 -8.82299e-07
2.18925e-08 1.03252e-05 -7.60633e-07
2.17297e-08 8.90717e-06 -6.52276e-07
6.23335e-06 -2.03587e-08 6.99594e-08
6.36773e-06 -1.78714e-08 3.78585e-08
6.47894e-06 -1.50264e-08 8.33087e-09
2.24551e-08 1.18601e-05 -8.79603e-07
2.32129e-08 1.02579e-05 -7.59534e-07
2.2342e-08 8.84933e-06 -6.52282e-07
6.58299e-06 -1.87242e-08 8.2213e-08
6.73254e-06 -1.68166e-08 5.07575e-08
6.85505e-06 -1.36924e-08 2.08895e-08
2.46113e-08 1.17682e-05 -8.77917e-07
2.44306e-08 1.01793e-05 -7.59031e-07
2.28955e-08 8.78264e-06 -6.52707e-07
6.92141e-06 -1.79664e-08 9.59054e-08
7.09314e-06 -1.60764e-08 6.40837e-08
7.23274e-06 -1.28176e-08 3.38394e-08
2.65793e-08 1.16607e-05 -8.76809e-07
2.51372e-08 1.00874e-05 -7.59383e-07
2.27117e-08 8.70537e-06 -6.54411e-07
7.231e-06 -1.77172e-08 1.08684e-07
7.43097e-06 -1.61515e-08 7.75514e-08
7.59391e-06 -1.30662e-08 4.79656e-08
5.64004e-06 -1.17116e-08 3.34408e-08
5.72953e-06 -1.04244e-08 1.29802e-08
1.40625e-08 7.81226e-06 -5.67851e-07
1.1427e-08 6.76248e-06 -4.90893e-07
9.16675e-09 5.82802e-06 -4.23107e-07
5.98086e-06 -1.29587e-08 3.82371e-08
6.06756e-06 -1.15163e-08 1.68818e-08
6.14514e-06 -9.93375e-09 -3.82628e-09
1.54723e-08 7.7499e-06 -5.66159e-07
1.23038e-08 6.70648e-06 -4.89282e-07
9.96133e-09 5.77562e-06 -4.23879e-07
6.31349e-06 -1.26433e-08 4.21107e-08
6.39876e-06 -1.15593e-08 2.02945e-08
6.47477e-06 -9.72445e-09 -1.18939e-09
1.70993e-08 7.70477e-06 -5.62389e-07
1.33103e-08 6.66598e-06 -4.85524e-07
1.04605e-08 5.73888e-06 -4.20335e-07
6.62226e-06 -1.17338e-08 4.62069e-08
6.70775e-06 -1.04066e-08 2.38371e-08
6.78226e-06 -8.24165e-09 1.90057e-09
1.84691e-08 7.65658e-06 -5.60997e-07
1.41525e-08 6.62375e-06 -4.83725e-07
1.08668e-08 5.70134e-06 -4.18371e-07
7.01376e-06 -1.09083e-08 5.18369e-08
7.10607e-06 -8.61437e-09 2.8948e-08
7.18346e-06 -6.14868e-09 6.92139e-09
1.95625e-08 7.60172e-06 -5.61231e-07
1.47812e-08 6.57674e-06 -4.83329e-07
1.08351e-08 5.66299e-06 -4.1495e-07
7.4123e-06 -9.91682e-09 5.79033e-08
7.51448e-06 -7.5084e-09 3.40094e-08
7.59787e-06 -4.91375e-09 1.09489e-08
2.03832e-08 7.53839e-06 -5.62279e-07
1.50992e-08 6.52353e-06 -4.83813e-07
1.07704e-08 5.61805e-06 -4.14965e-07
7.79912e-06 -9.28126e-09 6.42804e-08
7.91671e-06 -7.04939e-09 3.96736e-08
8.01094e-06 -4.62036e-09 1.58316e-08
2.84918e-08 1.15327e-05 -8.70758e-07
2.54255e-08 9.9775e-06 -7.56068e-07
2.18408e-08 8.61287e-06 -6.5383e-07