# vtk DataFile Version 3.0
vtk output
ASCII
DATASET POLYDATA
POINTS 21311 float
0.193111 0.934829 -0.0531498
0.18248 0.939937 -0.0531977
0.203756 0.939715 -0.053307
0.171827 0.935055 -0.0526735
0.182605 0.929943 -0.0526804
0.203872 0.929724 -0.0527103
0.214528 0.934626 -0.0527112
0.22507 0.939527 -0.0527805
0.15985 1.00012 -0.0560149
0.148982 1.00523 -0.0555346
0.160057 0.990132 -0.0554199
0.14925 0.995241 -0.0548649
0.160267 0.980139 -0.0548077
0.160446 0.970143 -0.0542229
0.149464 0.98525 -0.0542756
0.138439 1.00035 -0.0540543
0.149669 0.975253 -0.0537023
0.160617 0.960154 -0.0536712
0.138655 0.990356 -0.0535068
0.160784 0.950156 -0.0531062
0.149872 0.965264 -0.0531474
0.138871 0.980359 -0.052948
0.150018 0.955267 -0.0526964
0.192973 0.944822 -0.0537442
0.171652 0.945048 -0.053239
0.21441 0.944616 -0.0533318
0.203621 0.949706 -0.0539282
0.182288 0.949934 -0.0538079
0.170582 1.00501 -0.0568101
0.170762 0.995013 -0.0562392
0.17094 0.985023 -0.0556316
0.182145 0.959927 -0.0543274
0.192842 0.954814 -0.0542929
0.203497 0.959701 -0.0545157
0.214291 0.954606 -0.0539588
0.224855 0.959509 -0.0540592
0.17131 0.965034 -0.0544186
0.171108 0.975026 -0.055049
0.192711 0.964806 -0.0548841
0.214182 0.964596 -0.054593
0.181984 0.969918 -0.0549573
0.203364 0.969692 -0.0551726
0.192547 0.974801 -0.0555279
0.214046 0.974584 -0.0552744
0.203238 0.979685 -0.0557588
0.192386 0.984793 -0.0561363
0.192096 1.00478 -0.0573667
0.202848 1.00966 -0.0576401
0.224287 1.00945 -0.0573656
0.202984 0.999666 -0.0570239
0.213692 1.00456 -0.0572289
0.192245 0.994784 -0.0567695
0.213805 0.994564 -0.0565952
0.181507 0.999897 -0.0567804
0.224407 0.999465 -0.0566987
0.181654 0.989905 -0.0561836
0.203118 0.989675 -0.0563939
0.224517 0.989472 -0.0560421
0.213921 0.984577 -0.0559354
0.181806 0.979914 -0.055592
0.224626 0.979487 -0.0553847
0.224749 0.969497 -0.0547271
0.171471 0.955044 -0.0538539
0.224959 0.94952 -0.0534153
0.159624 1.01012 -0.0566428
0.138205 1.01034 -0.0546054
0.148728 1.01523 -0.0561275
0.159401 1.02011 -0.057282
0.148475 1.02522 -0.0567479
0.138006 1.02033 -0.05507
0.159192 1.0301 -0.0578344
0.137759 1.03033 -0.0556172
0.148263 1.03522 -0.057346
0.15898 1.0401 -0.0584682
0.137613 1.04032 -0.0560637
0.148076 1.0452 -0.0578401
0.158735 1.05008 -0.0591369
0.137322 1.05031 -0.0566466
0.147856 1.0552 -0.0584481
0.158516 1.06008 -0.0597646
0.136978 1.06031 -0.0573325
0.147587 1.06519 -0.0590196
0.158297 1.07007 -0.0603819
0.136688 1.07031 -0.0579445
0.147359 1.07518 -0.0595833
0.125983 1.07542 -0.0564499
0.12633 1.06543 -0.0557868
0.126729 1.05543 -0.055087
0.127054 1.04543 -0.0544466
0.127195 1.03544 -0.054128
0.127445 1.02544 -0.0536009
0.116233 1.07055 -0.0533866
0.127715 1.01545 -0.0530485
0.116575 1.06055 -0.0527872
0.181309 1.00989 -0.0574144
0.191945 1.01477 -0.0579698
0.213545 1.01455 -0.0578898
0.169604 1.05497 -0.0599057
0.169379 1.06496 -0.0605518
0.169199 1.07495 -0.0611209
0.170371 1.015 -0.0574265
0.18115 1.01988 -0.0580267
0.202709 1.01965 -0.0582611
0.224179 1.01944 -0.0580117
0.170182 1.025 -0.0580588
0.169972 1.03499 -0.0586836
0.169752 1.04498 -0.0593442
0.191807 1.02476 -0.0585538
0.213433 1.02454 -0.0585029
0.180962 1.02988 -0.0586423
0.202573 1.02965 -0.0588483
0.224062 1.02943 -0.058658
0.191646 1.03475 -0.0591592
0.21331 1.03453 -0.0591297
0.234596 1.03434 -0.0588497
0.18079 1.03987 -0.0592348
0.202438 1.03964 -0.0594414
0.223969 1.03943 -0.0592698
0.191461 1.04474 -0.0598416
0.213205 1.04452 -0.0597092
0.234512 1.04432 -0.0594669
0.180585 1.04986 -0.0598946
0.202298 1.04963 -0.0600513
0.223856 1.04941 -0.0599046
0.191301 1.05473 -0.0604395
0.213092 1.05451 -0.060287
0.234419 1.05432 -0.0600874
0.180419 1.05985 -0.0604878
0.180238 1.06983 -0.0611138
0.223762 1.0594 -0.0604907
0.202166 1.05962 -0.0606113
0.19113 1.06472 -0.0610467
0.212961 1.0645 -0.0608756
0.234315 1.0643 -0.0607208
0.202005 1.0696 -0.0612403
0.223656 1.06939 -0.0610832
0.190994 1.07472 -0.0615939
0.212826 1.07449 -0.0614622
0.234215 1.07429 -0.0613393
0.327991 0.938846 -0.0536438
0.348318 0.938757 -0.0537329
0.287197 0.939074 -0.0532627
0.307648 0.938957 -0.0533436
0.317853 0.933908 -0.0531736
0.338166 0.933807 -0.0534406
0.358483 0.933732 -0.0534556
0.246002 0.939356 -0.0528619
0.256346 0.934291 -0.0526885
0.276998 0.934152 -0.0527868
0.297463 0.93403 -0.0529622
0.266671 0.93921 -0.0530004
0.307698 0.928975 -0.052729
0.338198 0.923826 -0.0528155
0.358509 0.923751 -0.0528248
0.328034 0.928868 -0.0530235
0.348351 0.92878 -0.0531146
0.368545 0.938686 -0.053833
0.378757 0.933665 -0.0536301
0.398988 0.933614 -0.0535956
0.419201 0.933574 -0.0536733
0.388903 0.938631 -0.0539072
0.409066 0.938584 -0.0539542
0.4293 0.938553 -0.0539009
0.459631 0.933521 -0.0536974
0.449533 0.938522 -0.0539689
0.469719 0.938509 -0.0539153
0.489888 0.938504 -0.0538572
0.368598 0.928707 -0.0532099
0.388937 0.928652 -0.0532722
0.409087 0.928605 -0.0533111
0.429315 0.928575 -0.0532525
0.449541 0.928544 -0.0533204
0.469721 0.928531 -0.0532657
0.489885 0.928526 -0.053208
0.43944 0.933551 -0.0535609
0.479798 0.933519 -0.0535392
0.378816 0.923688 -0.0530141
0.399029 0.923638 -0.0529588
0.419225 0.923598 -0.0530313
0.439451 0.923571 -0.0529141
0.459631 0.923545 -0.0530483
0.479798 0.92354 -0.0528853
0.234889 1.00436 -0.0569366
0.235005 0.994376 -0.0562742
0.235111 0.984389 -0.0556037
0.235222 0.974398 -0.0549396
0.235336 0.96441 -0.0542603
0.235419 0.954422 -0.0536099
0.297392 0.944008 -0.0535884
0.256257 0.944274 -0.0532853
0.276924 0.944135 -0.0534034
0.276838 0.954117 -0.0540086
0.297331 0.953994 -0.0542121
0.26657 0.949194 -0.0536
0.287125 0.949062 -0.0538757
0.256166 0.95426 -0.0539001
0.287047 0.959043 -0.0544958
0.245769 0.959326 -0.0540867
0.266491 0.959181 -0.054215
0.297273 0.963974 -0.0548015
0.256072 0.964239 -0.0544958
0.276776 0.9641 -0.054628
0.26641 0.96916 -0.0548218
0.28699 0.969026 -0.0551247
0.276682 0.974082 -0.0552566
0.297204 0.973959 -0.0554445
0.286902 0.979008 -0.0557555
0.297121 0.98394 -0.0560838
0.245215 1.00925 -0.0572541
0.296992 1.00391 -0.0573438
0.266066 1.00909 -0.0573691
0.286701 1.00896 -0.057644
0.286764 0.998971 -0.0570164
0.276463 1.00403 -0.0571419
0.25567 1.00417 -0.0570185
0.245307 0.999257 -0.0566051
0.276525 0.994046 -0.056517
0.297061 0.993924 -0.0567169
0.266156 0.999111 -0.0567358
0.266232 0.989123 -0.0560982
0.286839 0.988989 -0.0564001
0.255773 0.99419 -0.0563997
0.255854 0.984204 -0.0557693
0.276607 0.984067 -0.0558919
0.24544 0.989275 -0.055984
0.24553 0.979291 -0.0553561
0.266323 0.979147 -0.0554594
0.255971 0.974224 -0.0551474
0.245665 0.969308 -0.0547447
0.245887 0.949344 -0.0534865
0.235515 0.944432 -0.0529913
0.338119 0.943788 -0.0540632
0.358445 0.943712 -0.0540841
0.327936 0.948831 -0.0542786
0.348273 0.948742 -0.0543653
0.317796 0.943893 -0.053805
0.317738 0.953874 -0.054423
0.338073 0.953772 -0.0547001
0.358408 0.953695 -0.0547257
0.307581 0.948944 -0.0539752
0.348231 0.958721 -0.0550012
0.327876 0.958812 -0.0549177
0.307515 0.958925 -0.0545934
0.338035 0.963749 -0.0553281
0.358377 0.963672 -0.0553574
0.31769 0.963856 -0.0550485
0.327832 0.968792 -0.0555665
0.348193 0.968701 -0.0556536
0.307462 0.968906 -0.0552311
0.337982 0.973733 -0.0559985
0.358332 0.973654 -0.0560233
0.317625 0.973839 -0.0557142
0.327774 0.978773 -0.0562078
0.348146 0.978682 -0.0562962
0.307387 0.978887 -0.0558642
0.307208 1.00884 -0.0577529
0.307262 0.998852 -0.0571239
0.337927 0.983712 -0.0566555
0.358287 0.983633 -0.0566778
0.317555 0.983819 -0.0563682
0.307328 0.988868 -0.0565232
0.327724 0.988753 -0.0568716
0.348104 0.988661 -0.0569578
0.337891 0.993694 -0.0573016
0.358256 0.993614 -0.0573268
0.317452 1.00378 -0.0576443
0.348064 0.998642 -0.0575916
0.337856 1.00368 -0.0579258
0.358223 1.0036 -0.0579685
0.327636 1.00872 -0.05814
0.348029 1.00863 -0.058227
0.327679 0.998738 -0.0575207
0.317509 0.9938 -0.0570182
0.23478 1.01436 -0.0575783
0.234682 1.02434 -0.0582163
0.276381 1.01401 -0.0577689
0.29693 1.01389 -0.0579775
0.255584 1.01415 -0.0576491
0.245124 1.01924 -0.0578943
0.286624 1.01894 -0.0582604
0.265989 1.01908 -0.057998
0.296856 1.02387 -0.0586052
0.255483 1.02414 -0.0582169
0.276314 1.024 -0.0583834
0.245027 1.02923 -0.0585423
0.265883 1.02906 -0.0586324
0.286556 1.02893 -0.0589123
0.276231 1.03398 -0.0590502
0.296794 1.03386 -0.0592651
0.255392 1.03413 -0.0588641
0.244932 1.03922 -0.0591778
0.286481 1.03891 -0.0595444
0.265802 1.03905 -0.0592673
0.296712 1.04384 -0.0599506
0.255271 1.0441 -0.0595142
0.276156 1.04397 -0.0597077
0.244836 1.0492 -0.0598267
0.265693 1.04902 -0.0599112
0.286408 1.04889 -0.0601846
0.244759 1.05919 -0.0604507
0.244689 1.06918 -0.0610566
0.276058 1.05395 -0.0603333
0.296643 1.05383 -0.060559
0.255163 1.05409 -0.0601364
0.286326 1.05888 -0.0608072
0.265607 1.05901 -0.0605332
0.255097 1.06408 -0.0607575
0.275986 1.06394 -0.0609725
0.296589 1.06382 -0.0611668
0.286265 1.06886 -0.0614232
0.265531 1.06899 -0.0611253
0.255016 1.07407 -0.0613813
0.296496 1.0738 -0.0617998
0.275901 1.07392 -0.061605
0.337805 1.01366 -0.0585748
0.358182 1.01358 -0.0586166
0.317399 1.01376 -0.0583014
0.307131 1.01882 -0.0583648
0.347989 1.0186 -0.0588689
0.327587 1.0187 -0.0587836
0.317339 1.02375 -0.0589214
0.337757 1.02364 -0.0592146
0.358139 1.02356 -0.0592592
0.30707 1.02881 -0.0590164
0.327531 1.02868 -0.0594348
0.347948 1.02859 -0.0595284
0.337708 1.03363 -0.0598645
0.358104 1.03354 -0.0599092
0.317288 1.03374 -0.0595561
0.307007 1.03879 -0.0596528
0.32748 1.03867 -0.0600725
0.347916 1.03857 -0.0601576
0.317212 1.04371 -0.060223
0.337662 1.04361 -0.0604975
0.358068 1.04352 -0.0605481
0.30694 1.04878 -0.0603239
0.306878 1.05876 -0.0609511
0.306831 1.06874 -0.0615704
0.327405 1.04865 -0.0607211
0.347863 1.04856 -0.0608099
0.317164 1.0537 -0.0608462
0.337616 1.05359 -0.0611387
0.358031 1.05351 -0.0611903
0.327361 1.05864 -0.0613545
0.347829 1.05854 -0.061442
0.317114 1.06369 -0.06147
0.337573 1.06358 -0.0617581
0.357994 1.06349 -0.0618191
0.327299 1.06861 -0.0619913
0.347788 1.06852 -0.0620842
0.317043 1.07367 -0.062112
[...]
POINT_DATA 21311
VECTORS alpha float
-2.60087e-07 2.00105e-05 -1.24207e-06
8.74505e-07 -7.11958e-09 5.64101e-08
8.97543e-07 -6.8901e-09 5.78858e-08
-2.87972e-07 2.02119e-05 -1.24442e-06
8.55799e-07 -6.88118e-09 5.76458e-08
8.7848e-07 -6.66579e-09 5.78189e-08
-1.9609e-07 1.88065e-05 -1.19271e-06
9.14222e-07 -6.48278e-09 4.13621e-08
9.51578e-07 -8.49774e-09 3.20139e-08
-3.7678e-07 1.90881e-05 -1.15235e-06
9.34107e-07 -8.26253e-09 3.26561e-08
-3.70081e-07 1.91079e-05 -1.15742e-06
9.17648e-07 -8.04024e-09 3.31486e-08
9.00065e-07 -7.80614e-09 3.40308e-08
-3.5964e-07 1.91263e-05 -1.13743e-06
9.03689e-07 -7.90405e-09 -1.66636e-08
-3.52563e-07 1.91441e-05 -1.16148e-06
8.83008e-07 -7.6017e-09 3.52349e-08
8.87526e-07 -7.6813e-09 -1.4552e-08
8.6558e-07 -7.38739e-09 3.61966e-08
-3.54568e-07 1.91622e-05 -1.16798e-06
8.72498e-07 -7.46251e-09 -1.30026e-08
-3.43634e-07 1.9179e-05 -1.16056e-06
-2.62911e-07 1.99926e-05 -1.24999e-06
-2.90179e-07 2.01939e-05 -1.26901e-06
-1.95671e-07 1.87897e-05 -1.19477e-06
9.15365e-07 -7.07709e-09 5.80839e-08
8.92259e-07 -7.326e-09 5.74179e-08
-3.13991e-07 2.00822e-05 -1.24738e-06
-2.8462e-07 2.01018e-05 -1.24705e-06
-2.64491e-07 2.01204e-05 -1.24404e-06
9.10962e-07 -7.55129e-09 5.54272e-08
-2.517e-07 1.9975e-05 -1.24382e-06
9.34702e-07 -7.31338e-09 5.81863e-08
-1.81034e-07 1.87733e-05 -1.20016e-06
9.50958e-07 -6.86829e-09 4.14837e-08
-2.62982e-07 2.01574e-05 -1.24564e-06
-2.71379e-07 2.01395e-05 -1.24875e-06
-2.53263e-07 1.99568e-05 -1.25581e-06
-1.79728e-07 1.8756e-05 -1.21376e-06
9.29591e-07 -7.77405e-09 5.65413e-08
9.52756e-07 -7.51607e-09 5.94119e-08
-2.48137e-07 1.99384e-05 -1.26128e-06
-1.81717e-07 1.87393e-05 -1.22502e-06
9.72162e-07 -7.72829e-09 5.93572e-08
-2.40755e-07 1.992e-05 -1.24383e-06
-2.33071e-07 1.98811e-05 -1.25298e-06
1.03212e-06 -8.46117e-09 5.93924e-08
1.04749e-06 -7.90254e-09 4.48235e-08
1.00834e-06 -8.17708e-09 5.92829e-08
-1.86246e-07 1.86851e-05 -1.24134e-06
-2.30998e-07 1.99005e-05 -1.24012e-06
-1.81222e-07 1.87038e-05 -1.2463e-06
9.84844e-07 -8.4784e-09 5.45018e-08
1.02362e-06 -7.67364e-09 4.39548e-08
9.67142e-07 -8.22711e-09 5.62012e-08
9.89788e-07 -7.94148e-09 5.99485e-08
1.00566e-06 -7.43664e-09 4.41828e-08
-1.74635e-07 1.87215e-05 -1.23365e-06
9.49736e-07 -8.01372e-09 5.77713e-08
9.8836e-07 -7.24839e-09 4.39722e-08
9.68618e-07 -7.05482e-09 4.30022e-08
-2.54985e-07 2.01753e-05 -1.23911e-06
9.31992e-07 -6.66569e-09 4.21097e-08
9.75908e-07 -8.82351e-09 3.25299e-08
9.2661e-07 -8.19599e-09 -1.88513e-08
-3.69705e-07 1.9069e-05 -1.1457e-06
9.94292e-07 -9.07312e-09 3.32478e-08
-3.90804e-07 1.90498e-05 -1.17268e-06
9.42614e-07 -8.40071e-09 -2.18281e-08
1.01608e-06 -9.37046e-09 3.2371e-08
9.63348e-07 -8.67924e-09 -2.35417e-08
-4.11826e-07 1.90302e-05 -1.20237e-06
1.03472e-06 -9.65707e-09 3.23023e-08
9.79463e-07 -8.90835e-09 -2.8023e-08
-4.36953e-07 1.90109e-05 -1.23472e-06
1.05505e-06 -9.93971e-09 3.37126e-08
9.99995e-07 -9.1864e-09 -2.92768e-08
-4.41847e-07 1.89903e-05 -1.22854e-06
1.07958e-06 -1.02949e-08 3.4949e-08
1.0246e-06 -9.50691e-09 -2.885e-08
-4.41705e-07 1.89695e-05 -1.19486e-06
1.10797e-06 -1.0668e-08 3.52453e-08
1.0514e-06 -9.88523e-09 -3.00389e-08
-4.2885e-07 1.89467e-05 -1.16667e-06
-4.01033e-07 1.70716e-05 -9.92478e-07
-4.10093e-07 1.7093e-05 -9.99682e-07
-4.11762e-07 1.71133e-05 -1.02818e-06
-4.165e-07 1.71331e-05 -1.02316e-06
-4.11635e-07 1.71533e-05 -9.77339e-07
-3.96021e-07 1.71716e-05 -9.61084e-07
9.64544e-07 -8.10213e-09 -1.25309e-07
-3.90637e-07 1.71899e-05 -9.40965e-07
9.40756e-07 -7.81131e-09 -1.21714e-07
1.0091e-06 -8.74955e-09 5.5005e-08
-2.42737e-07 1.98623e-05 -1.26967e-06
-1.8488e-07 1.86663e-05 -1.2374e-06
-3.70394e-07 1.99819e-05 -1.33077e-06
-3.55774e-07 1.99598e-05 -1.32388e-06
-3.63403e-07 1.99373e-05 -1.3189e-06
-3.22076e-07 2.00635e-05 -1.28611e-06
1.02723e-06 -9.00585e-09 5.55907e-08
1.05054e-06 -8.69494e-09 5.94118e-08
1.06548e-06 -8.13577e-09 4.50039e-08
-3.4926e-07 2.00436e-05 -1.31724e-06
-3.59374e-07 2.00233e-05 -1.33754e-06
-3.59772e-07 2.00028e-05 -1.33403e-06
-2.48624e-07 1.98422e-05 -1.28214e-06
-1.83705e-07 1.86472e-05 -1.22654e-06
1.0501e-06 -9.27746e-09 5.66345e-08
1.07324e-06 -8.99201e-09 5.91715e-08
1.08838e-06 -8.34952e-09 4.57725e-08
-2.49199e-07 1.98221e-05 -1.29364e-06
-1.87635e-07 1.86279e-05 -1.22648e-06
-1.36054e-07 1.6848e-05 -1.13171e-06
1.06926e-06 -9.56884e-09 5.64849e-08
1.09339e-06 -9.2767e-09 5.88987e-08
1.10839e-06 -8.62587e-09 4.55171e-08
-2.59926e-07 1.98019e-05 -1.28168e-06
-1.91588e-07 1.86083e-05 -1.21003e-06
-1.34916e-07 1.68297e-05 -1.13477e-06
1.08908e-06 -9.85276e-09 5.78841e-08
1.11345e-06 -9.564e-09 5.8378e-08
1.12827e-06 -8.85105e-09 4.54425e-08
-2.58389e-07 1.97814e-05 -1.28179e-06
-1.95753e-07 1.85895e-05 -1.20091e-06
-1.45352e-07 1.68119e-05 -1.1366e-06
1.11273e-06 -1.01518e-08 5.92149e-08
1.14174e-06 -1.05387e-08 6.22593e-08
1.15214e-06 -9.1439e-09 4.51945e-08
1.13745e-06 -9.88957e-09 5.79145e-08
-2.53846e-07 1.97603e-05 -1.2959e-06
-2.00254e-07 1.85692e-05 -1.20889e-06
-1.46947e-07 1.67932e-05 -1.13693e-06
1.16632e-06 -1.02263e-08 5.96882e-08
1.17994e-06 -9.4952e-09 4.50649e-08
-2.56611e-07 1.97383e-05 -1.2864e-06
-2.06119e-07 1.85486e-05 -1.20419e-06
-1.54507e-07 1.67741e-05 -1.13248e-06
9.97651e-07 -3.29725e-09 2.03049e-08
1.01138e-06 -2.72581e-09 2.00962e-08
9.6498e-07 -4.60992e-09 2.05651e-08
9.81828e-07 -4.03169e-09 1.69719e-08
-2.80306e-08 9.97463e-06 -6.77024e-07
-2.62725e-08 8.69763e-06 -5.92104e-07
-2.13622e-08 7.53902e-06 -5.14806e-07
9.31583e-07 -5.88777e-09 3.20857e-08
-9.22608e-08 1.50261e-05 -9.76996e-07
-6.32759e-08 1.31233e-05 -8.58392e-07
-4.22793e-08 1.14345e-05 -7.69371e-07
9.46634e-07 -5.27007e-09 2.48863e-08
9.61776e-07 -3.87879e-09 1.71978e-08
-2.71686e-08 8.70617e-06 -5.8868e-07
-2.10227e-08 7.54646e-06 -5.13493e-07
9.77451e-07 -3.19267e-09 2.05249e-08
9.9118e-07 -2.64708e-09 2.00741e-08
1.02456e-06 -2.3164e-09 1.62261e-08
-5.18147e-09 6.44264e-06 -4.425e-07
-2.86894e-09 5.36865e-06 -3.73393e-07
-6.38794e-09 4.29835e-06 -3.00053e-07
1.03231e-06 -1.66713e-09 1.42243e-08
1.04173e-06 -1.35742e-09 1.27689e-08
1.05016e-06 -1.22725e-09 9.14061e-09
-2.03661e-09 2.15083e-06 -1.5042e-07
1.0557e-06 -5.2779e-10 1.06276e-08
1.05953e-06 -2.79737e-10 8.39542e-09
1.06062e-06 -2.16416e-10 -2.36228e-09
1.00401e-06 -2.20811e-09 1.65654e-08
1.0119e-06 -1.59681e-09 1.43999e-08
1.02128e-06 -1.3017e-09 1.29817e-08
1.02957e-06 -1.18183e-09 9.09554e-09
1.03509e-06 -5.0105e-10 1.06021e-08
1.03889e-06 -2.70823e-10 8.27798e-09
1.04e-06 -2.20838e-10 -2.38626e-09
-9.9825e-10 3.22561e-06 -2.26339e-07
-3.51406e-10 1.07531e-06 -7.52147e-08
-3.77038e-09 6.44874e-06 -4.43303e-07
-1.99025e-09 5.37374e-06 -3.72615e-07
-6.32823e-09 4.3025e-06 -2.99367e-07
-6.23562e-10 3.22886e-06 -2.2555e-07
-1.71521e-09 2.1529e-06 -1.50265e-07
-2.24108e-10 1.07639e-06 -7.50893e-08
-1.28219e-07 1.69e-05 -1.13913e-06
-1.28646e-07 1.69173e-05 -1.14328e-06
-1.18675e-07 1.69334e-05 -1.12115e-06
-1.10811e-07 1.69492e-05 -1.12167e-06
-1.07542e-07 1.69645e-05 -1.11833e-06
-1.08513e-07 1.69804e-05 -1.11121e-06
-4.16098e-08 1.14236e-05 -7.70247e-07
-9.01362e-08 1.50118e-05 -9.81395e-07
-6.07138e-08 1.31105e-05 -8.64416e-07
-5.99322e-08 1.30989e-05 -8.65907e-07
-3.84945e-08 1.14126e-05 -7.65329e-07
9.65104e-07 -5.41101e-09 2.47969e-08
9.83355e-07 -4.7347e-09 2.10459e-08
-8.60606e-08 1.49979e-05 -9.80606e-07
1.00384e-06 -4.87121e-09 2.07468e-08
9.70093e-07 -6.25842e-09 3.18342e-08
9.85172e-07 -5.57579e-09 2.48153e-08
-3.60861e-08 1.14013e-05 -7.64661e-07
-8.32307e-08 1.49839e-05 -9.81523e-07
-5.41722e-08 1.30858e-05 -8.67842e-07
1.00258e-06 -5.72586e-09 2.47338e-08
1.02091e-06 -5.00293e-09 2.10005e-08
-5.37426e-08 1.30735e-05 -8.73761e-07
-3.50322e-08 1.13896e-05 -7.70635e-07
1.04207e-06 -5.12377e-09 2.18453e-08
-3.55359e-08 1.13781e-05 -7.77986e-07
1.07002e-06 -7.24596e-09 3.42196e-08
-3.31655e-08 1.1354e-05 -7.81746e-07
1.08548e-06 -6.35675e-09 2.65735e-08
1.10401e-06 -5.54699e-09 2.32676e-08
1.08056e-06 -5.39048e-09 2.31151e-08
-4.33615e-08 1.30331e-05 -8.87572e-07
-7.8214e-08 1.49248e-05 -9.97363e-07
1.04692e-06 -7.01971e-09 3.33617e-08
-4.55044e-08 1.3047e-05 -8.80653e-07
-3.0892e-08 1.13659e-05 -7.77534e-07
1.06136e-06 -6.19728e-09 2.61151e-08
1.04242e-06 -6.01735e-09 2.59029e-08
1.06111e-06 -5.25233e-09 2.25982e-08
-8.08096e-08 1.49401e-05 -9.95834e-07
-8.06986e-08 1.4955e-05 -9.92951e-07
-4.86631e-08 1.30603e-05 -8.79696e-07
1.02742e-06 -6.80597e-09 3.33093e-08
1.00906e-06 -6.60541e-09 3.3204e-08
1.02343e-06 -5.87471e-09 2.56242e-08
-8.20408e-08 1.49694e-05 -9.88338e-07
9.87946e-07 -6.42288e-09 3.27316e-08
9.49909e-07 -6.06027e-09 3.25185e-08
-1.20009e-07 1.69958e-05 -1.10742e-06
-2.67274e-08 8.6895e-06 -5.93808e-07
-2.24852e-08 7.53181e-06 -5.16728e-07
1.01654e-06 -3.40503e-09 2.02003e-08
1.03038e-06 -2.81462e-09 2.01335e-08
-2.82707e-08 9.96495e-06 -6.81432e-07
-3.01819e-08 9.95561e-06 -6.81371e-07
-2.59701e-08 8.68104e-06 -5.94565e-07
-2.33211e-08 7.52425e-06 -5.18842e-07
1.00076e-06 -4.16395e-09 1.69905e-08
1.05184e-06 -2.89312e-09 2.01965e-08
1.03796e-06 -3.5021e-09 2.01337e-08
1.02197e-06 -4.31434e-09 1.63098e-08
-2.30048e-08 8.67222e-06 -5.97517e-07
-2.11108e-08 7.51658e-06 -5.1903e-07
-2.40771e-08 9.94538e-06 -6.82458e-07
1.05548e-06 -3.6078e-09 2.00476e-08
1.06945e-06 -2.97107e-09 2.0623e-08
1.03952e-06 -4.44534e-09 1.62451e-08
-2.16324e-08 8.66316e-06 -6.0131e-07
-2.02396e-08 7.50859e-06 -5.22307e-07
-2.30728e-08 9.93502e-06 -6.8841e-07
1.07758e-06 -3.69501e-09 2.0547e-08
1.09175e-06 -3.04165e-09 2.14612e-08
1.0617e-06 -4.57325e-09 1.68636e-08
1.12362e-06 -4.91327e-09 1.93038e-08
1.10016e-06 -4.77799e-09 1.86985e-08
-2.05387e-08 8.65427e-06 -6.00926e-07
-1.98245e-08 7.50075e-06 -5.22144e-07
-2.26336e-08 9.92487e-06 -6.8948e-07
1.08123e-06 -4.6762e-09 1.78391e-08
1.09784e-06 -3.80065e-09 2.08641e-08
1.11237e-06 -3.13721e-09 2.17092e-08
-1.62387e-08 8.64483e-06 -5.99202e-07
-1.67202e-08 7.4924e-06 -5.22335e-07
-1.9181e-08 9.9036e-06 -6.88177e-07
1.13274e-06 -3.21988e-09 2.1912e-08
-1.67761e-08 8.63527e-06 -6.00197e-07
-1.74847e-08 7.48405e-06 -5.22265e-07
1.14224e-06 -4.04102e-09 2.13467e-08
1.15679e-06 -3.32779e-09 2.22533e-08
1.118e-06 -3.90698e-09 2.13489e-08
-1.70072e-08 9.91406e-06 -6.88625e-07
-1.36442e-07 1.68831e-05 -1.13759e-06
-1.29029e-07 1.68661e-05 -1.13083e-06
-4.07444e-08 1.30191e-05 -8.88696e-07
-2.99805e-08 1.13409e-05 -7.88561e-07
-7.57958e-08 1.49087e-05 -9.98624e-07
1.08765e-06 -7.44167e-09 3.5333e-08
1.12371e-06 -5.67983e-09 2.35744e-08
1.10476e-06 -6.53405e-09 2.67825e-08
-2.91656e-08 1.1329e-05 -7.91734e-07
-7.06471e-08 1.48935e-05 -9.98257e-07
-3.89868e-08 1.3006e-05 -8.88703e-07
1.11002e-06 -7.6614e-09 3.59559e-08
1.12873e-06 -6.70935e-09 2.73877e-08
1.1469e-06 -5.85081e-09 2.41463e-08
-4.03656e-08 1.29914e-05 -8.93008e-07
-3.14022e-08 1.13163e-05 -7.9142e-07
-7.16895e-08 1.48775e-05 -9.98477e-07
1.1293e-06 -7.84985e-09 3.60035e-08
1.16758e-06 -5.9908e-09 2.46254e-08
1.14893e-06 -6.90918e-09 2.74659e-08
-3.21828e-08 1.13032e-05 -7.91422e-07
-7.11038e-08 1.48613e-05 -9.988e-07
-4.26366e-08 1.29771e-05 -8.97349e-07
1.14865e-06 -8.07059e-09 3.60779e-08
1.16999e-06 -7.07766e-09 2.80056e-08
1.18809e-06 -6.13797e-09 2.51903e-08
1.17292e-06 -8.27725e-09 3.65836e-08
1.20031e-06 -8.59282e-09 3.67984e-08
-4.23166e-08 1.29624e-05 -8.94141e-07
-3.25905e-08 1.12906e-05 -7.84611e-07
-7.50752e-08 1.48447e-05 -9.98191e-07
1.21328e-06 -6.2743e-09 2.53108e-08
1.19465e-06 -7.26858e-09 2.79205e-08
-7.13998e-08 1.48275e-05 -1.00264e-06
-4.41842e-08 1.29467e-05 -8.93932e-07
-3.39027e-08 1.12768e-05 -7.86784e-07
1.24078e-06 -6.49204e-09 2.48599e-08
1.22214e-06 -7.52936e-09 2.70224e-08
-7.36952e-08 1.48103e-05 -1.00179e-06
-3.27021e-08 1.12629e-05 -7.78129e-07
-4.52397e-08 1.29313e-05 -8.88883e-07
-1.58003e-08 8.62554e-06 -6.03461e-07
-1.63827e-08 7.47554e-06 -5.24785e-07
-1.5416e-08 9.89205e-06 -6.93552e-07
1.14347e-06 -5.01085e-09 2.02826e-08
1.17847e-06 -3.41646e-09 2.25857e-08
1.16333e-06 -4.16179e-09 2.17083e-08
-1.31664e-08 9.88154e-06 -6.9537e-07
-1.26074e-08 8.61581e-06 -6.06125e-07
-1.38173e-08 7.46705e-06 -5.25902e-07
1.16687e-06 -5.14862e-09 2.10897e-08
1.1875e-06 -4.28381e-09 2.2104e-08
1.20241e-06 -3.52451e-09 2.30327e-08
-1.15073e-08 8.60602e-06 -6.0661e-07
-1.36446e-08 7.45846e-06 -5.26277e-07
-1.38856e-08 9.8705e-06 -6.98027e-07
1.18785e-06 -5.25068e-09 2.19107e-08
1.20907e-06 -4.43229e-09 2.23565e-08
1.22422e-06 -3.65629e-09 2.29999e-08
-1.30889e-08 9.85889e-06 -6.96737e-07
-1.35135e-08 8.59573e-06 -6.05746e-07
-1.57215e-08 7.44944e-06 -5.25476e-07
1.20885e-06 -5.35948e-09 2.31653e-08
1.23423e-06 -5.473e-09 2.35293e-08
1.26205e-06 -5.67051e-09 2.30989e-08
1.23105e-06 -4.54278e-09 2.275e-08
1.2464e-06 -3.74202e-09 2.35774e-08
-1.2665e-08 9.8471e-06 -6.95411e-07
-1.07933e-08 8.58565e-06 -6.03435e-07
-1.41867e-08 7.44056e-06 -5.23527e-07
1.25696e-06 -4.70871e-09 2.28174e-08
1.2723e-06 -3.86392e-09 2.35081e-08
-1.67962e-08 9.83504e-06 -7.00572e-07
-1.41412e-08 8.57506e-06 -6.06407e-07
-1.62016e-08 7.43138e-06 -5.2424e-07
1.28619e-06 -4.88935e-09 2.21666e-08
1.30163e-06 -3.98171e-09 2.32225e-08
-1.68749e-08 9.82256e-06 -6.96255e-07
-1.58971e-08 7.42199e-06 -5.20629e-07
-1.53715e-08 8.56423e-06 -6.03893e-07
1.04372e-06 -2.35204e-09 1.67832e-08
1.05214e-06 -1.73048e-09 1.37218e-08
1.0616e-06 -1.40371e-09 1.23007e-08
1.07017e-06 -1.26018e-09 9.07327e-09
-5.65041e-09 6.43614e-06 -4.43976e-07
-2.53588e-09 5.3632e-06 -3.75387e-07
-6.11614e-09 4.29397e-06 -3.01212e-07
-5.99993e-09 4.28977e-06 -3.00304e-07
-6.33988e-09 6.42961e-06 -4.44529e-07
-2.35511e-09 5.3578e-06 -3.75458e-07
1.06498e-06 -2.40522e-09 1.71916e-08
1.0826e-06 -2.47626e-09 1.76234e-08
1.10495e-06 -2.52597e-09 1.85605e-08
1.1258e-06 -2.61889e-09 1.85107e-08
1.14624e-06 -2.67918e-09 1.90362e-08
1.1704e-06 -2.76661e-09 1.95413e-08
1.07402e-06 -1.78741e-09 1.35732e-08
1.08359e-06 -1.45165e-09 1.20898e-08
1.09238e-06 -1.30875e-09 9.0135e-09
-4.84624e-09 6.42295e-06 -4.44443e-07
-4.90618e-09 4.28509e-06 -3.01316e-07
-1.22972e-09 5.35222e-06 -3.74591e-07
1.09224e-06 -1.84544e-09 1.31432e-08
1.10178e-06 -1.49429e-09 1.17966e-08
1.11066e-06 -1.33757e-09 9.04322e-09
-4.617e-09 6.41605e-06 -4.46127e-07
-4.67294e-10 5.34649e-06 -3.75768e-07
-4.29911e-09 4.28048e-06 -3.01946e-07
1.11482e-06 -1.88816e-09 1.34131e-08
1.12442e-06 -1.53258e-09 1.18902e-08
1.13352e-06 -1.38359e-09 9.34423e-09
-4.14951e-09 6.40932e-06 -4.45614e-07
3.07088e-10 5.34087e-06 -3.75471e-07
-3.80469e-09 4.27598e-06 -3.01046e-07
1.14636e-06 -1.57721e-09 1.16991e-08
1.13614e-06 -1.93893e-09 1.33889e-08
1.15538e-06 -1.43083e-09 9.4303e-09
1.17666e-06 -1.46634e-09 9.49813e-09
-2.70355e-09 6.40205e-06 -4.47125e-07
1.53163e-09 5.33481e-06 -3.75103e-07
-2.80964e-09 4.27113e-06 -3.00705e-07
-4.44991e-09 6.39502e-06 -4.48658e-07
1.21896e-09 5.32903e-06 -3.74599e-07
-3.37764e-09 4.26647e-06 -3.01147e-07
1.15723e-06 -1.99369e-09 1.29694e-08
1.16711e-06 -1.62136e-09 1.16678e-08
1.18167e-06 -2.04731e-09 1.279e-08
1.19162e-06 -1.66776e-09 1.15909e-08
1.20135e-06 -1.5043e-09 9.45304e-09
1.07572e-06 -5.42512e-10 1.05769e-08
1.07955e-06 -2.75553e-10 8.51369e-09
1.0806e-06 -1.94989e-10 -2.24834e-09
-1.57525e-09 3.22242e-06 -2.27109e-07
-2.00568e-09 2.14863e-06 -1.50879e-07
-4.80222e-10 1.07424e-06 -7.54291e-08
-2.14135e-09 2.14651e-06 -1.5061e-07
-1.71181e-09 3.21913e-06 -2.26663e-07
-5.38407e-10 1.07314e-06 -7.53599e-08
1.09803e-06 -5.62887e-10 1.06859e-08
1.10192e-06 -2.90591e-10 8.5229e-09
1.10297e-06 -2.03896e-10 -2.48267e-09
-1.58164e-09 3.21573e-06 -2.27126e-07
-1.81529e-09 2.14416e-06 -1.51076e-07
-5.28373e-10 1.072e-06 -7.55291e-08
1.11634e-06 -5.83978e-10 1.06509e-08
1.12023e-06 -2.99783e-10 8.5638e-09
1.12097e-06 -2.19696e-10 -2.60339e-09
-1.49827e-09 3.21226e-06 -2.27521e-07
-1.60101e-09 2.14185e-06 -1.5126e-07
-5.24075e-10 1.07085e-06 -7.56073e-08
1.13926e-06 -6.07815e-10 1.08527e-08
1.14321e-06 -3.18945e-10 8.80984e-09
1.1442e-06 -2.09709e-10 -2.5272e-09
-1.50859e-09 3.20885e-06 -2.27258e-07
-1.53784e-09 2.13957e-06 -1.51106e-07
-5.59683e-10 1.06971e-06 -7.55144e-08
1.16162e-06 -6.32291e-10 1.09557e-08
1.16537e-06 -3.4061e-10 8.97465e-09
1.1664e-06 -2.23138e-10 -2.55048e-09
1.1826e-06 -6.54143e-10 1.11116e-08
1.18667e-06 -3.37012e-10 9.19263e-09
1.18764e-06 -1.92879e-10 -2.29074e-09
-1.04383e-09 3.20518e-06 -2.27385e-07
-1.33104e-09 2.13712e-06 -1.50923e-07
-5.49171e-10 1.06849e-06 -7.53952e-08
-1.81387e-09 3.20165e-06 -2.27979e-07
-1.58278e-09 2.13479e-06 -1.51125e-07
-7.46713e-10 1.06731e-06 -7.54995e-08
1.20737e-06 -6.62963e-10 1.13557e-08
1.21148e-06 -3.41176e-10 9.40985e-09
1.21245e-06 -1.9107e-10 -2.29954e-09
-3.34143e-09 6.38742e-06 -4.50725e-07
2.48392e-09 5.32273e-06 -3.74591e-07
-2.7156e-09 4.2614e-06 -3.01521e-07
1.19232e-06 -2.81322e-09 2.03313e-08
1.21644e-06 -2.91233e-09 2.07856e-08
1.23899e-06 -2.99015e-09 2.11382e-08
1.26126e-06 -3.10571e-09 2.16227e-08
1.28774e-06 -3.1779e-09 2.20257e-08
1.31745e-06 -3.32471e-09 2.20884e-08
1.20426e-06 -2.09889e-09 1.26284e-08
1.21441e-06 -1.71613e-09 1.14995e-08
1.22433e-06 -1.54264e-09 9.40234e-09
-3.46693e-09 6.38037e-06 -4.51481e-07
3.21313e-09 5.31693e-06 -3.73602e-07
-2.45785e-09 4.25675e-06 -3.01019e-07
1.2284e-06 -2.15258e-09 1.24194e-08
1.23863e-06 -1.76594e-09 1.13135e-08
1.24867e-06 -1.5956e-09 9.15595e-09
-2.24858e-09 6.37263e-06 -4.53182e-07
4.32933e-09 5.31047e-06 -3.75326e-07
-1.91586e-09 4.25155e-06 -3.01538e-07
1.25146e-06 -2.23348e-09 1.1645e-08
1.26207e-06 -1.83168e-09 1.08481e-08
1.2724e-06 -1.62683e-09 9.014e-09
-2.0656e-09 4.24635e-06 -3.01554e-07
-3.05475e-09 6.36483e-06 -4.53052e-07
3.73735e-09 5.30401e-06 -3.75381e-07
1.27368e-06 -2.29656e-09 1.16793e-08
1.28446e-06 -1.87106e-09 1.08235e-08
1.29514e-06 -1.67843e-09 9.19862e-09
-2.04299e-09 6.35717e-06 -4.50144e-07
4.76499e-09 5.29758e-06 -3.74104e-07
-2.01885e-09 4.24116e-06 -3.0116e-07
1.301e-06 -2.39052e-09 1.14219e-08
1.31197e-06 -1.94516e-09 1.06957e-08
1.32278e-06 -1.73139e-09 9.11446e-09
-3.24589e-09 6.34924e-06 -4.50179e-07
-2.1135e-09 4.23581e-06 -3.01176e-07
4.41557e-09 5.29094e-06 -3.74799e-07
1.33075e-06 -2.48824e-09 1.10936e-08
1.34206e-06 -2.02811e-09 1.06068e-08
1.35307e-06 -1.78235e-09 9.1734e-09
-3.02249e-09 6.34108e-06 -4.47612e-07
4.65534e-09 5.28411e-06 -3.73513e-07
-2.26671e-09 4.23032e-06 -3.005e-07
-1.41559e-09 3.19781e-06 -2.28372e-07
-1.29702e-09 2.13223e-06 -1.51293e-07
-6.79045e-10 1.06603e-06 -7.55876e-08
1.23047e-06 -6.89433e-10 1.15826e-08
1.23463e-06 -3.51595e-10 9.66651e-09
1.2356e-06 -1.83678e-10 -2.13027e-09
-1.29877e-09 2.12986e-06 -1.51028e-07
-1.10201e-09 3.1941e-06 -2.28364e-07
-6.74928e-10 1.06479e-06 -7.55574e-08
1.25484e-06 -7.06084e-10 1.1739e-08
1.25906e-06 -3.65541e-10 9.71601e-09
1.26003e-06 -1.94185e-10 -2.37848e-09
-1.17053e-09 3.19034e-06 -2.28297e-07
-1.07826e-09 2.12725e-06 -1.51024e-07
-7.47671e-10 1.06353e-06 -7.54669e-08
1.27877e-06 -7.26205e-10 1.19517e-08
1.28312e-06 -3.77142e-10 9.82452e-09
1.28414e-06 -1.90798e-10 -2.28275e-09
-1.15645e-09 2.12462e-06 -1.51219e-07
-1.57368e-09 3.18643e-06 -2.28353e-07
-8.78305e-10 1.06223e-06 -7.55645e-08
1.30166e-06 -7.62117e-10 1.19972e-08
1.30617e-06 -4.00608e-10 1.0131e-08
1.30726e-06 -1.99598e-10 -2.23505e-09
-1.3597e-09 3.18249e-06 -2.27996e-07
-1.27879e-09 2.122e-06 -1.50737e-07
-9.842e-10 1.0609e-06 -7.52571e-08
1.32945e-06 -7.67857e-10 1.24515e-08
1.33399e-06 -4.01282e-10 1.03829e-08
1.33504e-06 -1.91421e-10 -2.1552e-09
-1.68378e-09 3.17846e-06 -2.28137e-07
-1.28157e-09 2.11929e-06 -1.50846e-07
-1.10127e-09 1.05955e-06 -7.5359e-08
1.36001e-06 -8.05341e-10 1.28329e-08
1.36469e-06 -4.31964e-10 1.06095e-08
1.36581e-06 -2.05778e-10 -1.95537e-09
-1.71919e-09 3.17433e-06 -2.27182e-07
-1.52235e-09 2.11653e-06 -1.50515e-07
-1.23082e-09 1.05816e-06 -7.51107e-08
-1.92296e-14 1.1228e-10 -7.87996e-12
-2.12967e-09 -2.1506e-06 1.50866e-07
1.06058e-06 1.9571e-10 2.07073e-09
1.05954e-06 2.69567e-10 -8.91955e-09
1.05566e-06 5.27233e-10 -1.05317e-08
-6.45187e-09 -4.29811e-06 3.0079e-07
-2.8265e-09 -5.36845e-06 3.73274e-07
-5.15139e-09 -6.44245e-06 4.42377e-07