# vtk DataFile Version 3.0
vtk output
ASCII
DATASET POLYDATA
POINTS 18483 float
0.151068 0.925202 -0.0512626
0.151254 0.915212 -0.0506943
0.140398 0.930304 -0.0505213
0.151437 0.905212 -0.0501226
0.140619 0.920305 -0.0499026
0.151598 0.895219 -0.0495807
0.140789 0.910314 -0.0493857
0.151729 0.885224 -0.0490941
0.140923 0.900318 -0.0489625
0.130011 0.925401 -0.0488887
0.141094 0.890317 -0.04846
0.151885 0.875226 -0.0485129
0.130216 0.91541 -0.0483502
0.152031 0.86523 -0.0479253
0.141277 0.880326 -0.0478963
0.130418 0.905411 -0.0478183
0.152175 0.855236 -0.0473607
0.141438 0.870332 -0.047351
0.130579 0.89542 -0.047358
0.119612 0.930501 -0.0473513
0.194228 0.874843 -0.049722
0.183668 0.869933 -0.0494684
0.172992 0.875015 -0.0495702
0.162386 0.870114 -0.0489319
0.173147 0.865023 -0.0489798
0.194368 0.864858 -0.0490549
0.204912 0.869769 -0.0491675
0.183832 0.859948 -0.0488054
0.205025 0.859778 -0.0485383
0.162583 0.860123 -0.0483285
0.183978 0.849953 -0.0481914
0.173291 0.855036 -0.048398
0.194498 0.854871 -0.0484069
0.173447 0.845042 -0.0477933
0.19465 0.844877 -0.0477694
0.16278 0.850125 -0.0477387
0.205156 0.849791 -0.0478833
0.184144 0.839969 -0.0475105
0.20528 0.839801 -0.0472382
0.215402 0.874679 -0.0492747
0.215512 0.864695 -0.0486211
0.246651 0.869454 -0.0488826
0.236292 0.874526 -0.0490602
0.256929 0.874382 -0.0491266
0.236379 0.864538 -0.0484439
0.256992 0.864397 -0.0484989
0.225945 0.869608 -0.0487882
0.26724 0.869326 -0.0487575
0.226045 0.85962 -0.0481626
0.246712 0.859471 -0.0482761
0.267293 0.85934 -0.0481397
0.246799 0.849481 -0.0476228
0.215617 0.854706 -0.0479989
0.236461 0.854552 -0.0478342
0.257057 0.854411 -0.0478563
0.215754 0.844716 -0.0473129
0.236558 0.84456 -0.0472142
0.257119 0.84442 -0.0472455
0.226162 0.849634 -0.0474955
0.267348 0.849356 -0.0475009
0.16228 0.880115 -0.049475
0.183485 0.879921 -0.0501148
0.204785 0.879757 -0.0498091
0.172764 0.885007 -0.0502024
0.194091 0.884834 -0.0503561
0.162137 0.890109 -0.0500708
0.183333 0.889913 -0.0507492
0.204665 0.889748 -0.050441
0.161489 0.930092 -0.0524816
0.161663 0.920094 -0.0518615
0.161822 0.910102 -0.0512809
0.161976 0.900109 -0.0506958
0.193938 0.894817 -0.0510078
0.172588 0.894999 -0.0508398
0.183156 0.899897 -0.0514131
0.20454 0.899731 -0.051099
0.172398 0.904991 -0.0514738
0.193799 0.90481 -0.0516494
0.182997 0.909892 -0.0520612
0.204417 0.909718 -0.0517448
0.172251 0.914993 -0.0520867
0.193671 0.914799 -0.0522477
0.182777 0.919883 -0.0527459
0.204305 0.919707 -0.0523935
0.172116 0.924984 -0.0527088
0.193541 0.924789 -0.0528949
0.182571 0.929882 -0.0534534
0.20417 0.929694 -0.0530212
0.26719 0.879309 -0.0493939
0.225829 0.879593 -0.0494624
0.246574 0.879446 -0.0495007
0.215297 0.88467 -0.0498934
0.236205 0.884511 -0.0496945
0.256869 0.884367 -0.0497504
0.215188 0.894653 -0.0505319
0.215086 0.904647 -0.0511614
0.214981 0.914633 -0.0517974
0.214879 0.924623 -0.0524453
0.246503 0.889429 -0.0501259
0.225733 0.889583 -0.050095
0.267133 0.889299 -0.0499962
0.236116 0.894498 -0.050324
0.256799 0.894352 -0.0503805
0.225621 0.899564 -0.0507779
0.246417 0.899417 -0.0507613
0.267072 0.899281 -0.0506307
0.236019 0.904483 -0.0509806
0.256728 0.904338 -0.0510161
0.225526 0.909551 -0.0513994
0.246336 0.909403 -0.0513942
0.267009 0.909272 -0.0512466
0.235919 0.914474 -0.0516277
0.256655 0.914329 -0.05163
0.225434 0.91954 -0.0520266
0.246263 0.919391 -0.0519818
0.266954 0.919253 -0.051882
0.225348 0.929529 -0.0526256
0.235822 0.924455 -0.0523093
0.256591 0.92431 -0.0522667
0.246183 0.929384 -0.0525841
0.266886 0.929244 -0.0524851
0.297736 0.874167 -0.0494829
0.31815 0.874087 -0.0495487
0.277319 0.874252 -0.0491532
0.28758 0.869215 -0.0491037
0.307992 0.869137 -0.0491426
0.277395 0.864272 -0.0485393
0.287655 0.859231 -0.0484898
0.308044 0.859153 -0.0485022
0.297824 0.864193 -0.0488162
0.318213 0.864113 -0.0488824
0.297893 0.854205 -0.0481696
0.318267 0.854124 -0.0482382
0.277514 0.854295 -0.0479088
0.287757 0.849252 -0.0478605
0.308122 0.849175 -0.0478585
0.287832 0.839264 -0.0472463
0.30818 0.839185 -0.0472611
0.277596 0.844308 -0.0473043
0.297981 0.844223 -0.0475417
0.318331 0.844142 -0.0476144
0.32833 0.869056 -0.0492751
0.328372 0.85907 -0.048627
0.328426 0.849089 -0.0479717
0.378973 0.873864 -0.0499559
0.368838 0.868898 -0.0495727
0.338422 0.873994 -0.0497095
0.358708 0.873924 -0.0497926
0.338463 0.864011 -0.0490558
0.378986 0.863883 -0.0492961
0.358739 0.863942 -0.0491518
0.348605 0.868968 -0.0493796
0.379003 0.853901 -0.0486387
0.348637 0.858984 -0.0487465
0.368858 0.858921 -0.0489242
0.348673 0.848997 -0.0481027
0.368883 0.848935 -0.0482823
0.338517 0.854031 -0.0483984
0.35877 0.853961 -0.0485012
0.338558 0.844044 -0.0477696
0.358796 0.843974 -0.0478684
0.379015 0.843922 -0.0479698
0.379035 0.83394 -0.0472905
0.328467 0.839098 -0.0473534
0.348716 0.839016 -0.0474521
0.368908 0.838954 -0.0476312
0.287478 0.879191 -0.0497414
0.307922 0.879112 -0.0497845
0.277243 0.884233 -0.0497586
0.318081 0.884065 -0.0501956
0.29767 0.884153 -0.0501168
0.287403 0.889179 -0.0503326
0.307861 0.8891 -0.0503861
0.277198 0.894217 -0.0503749
0.297581 0.894127 -0.0507513
0.318031 0.894048 -0.0508436
0.307776 0.899078 -0.0510434
0.287328 0.899164 -0.0509111
0.277146 0.904203 -0.0509989
0.277097 0.914194 -0.0516059
0.277054 0.924175 -0.052236
0.297507 0.904116 -0.0513574
0.317977 0.904036 -0.0514608
0.287214 0.90914 -0.0515061
0.307707 0.909069 -0.0516685
0.297408 0.914098 -0.0519698
0.317912 0.914016 -0.0520852
0.287141 0.919121 -0.0521135
0.307645 0.919053 -0.052308
0.297345 0.924081 -0.0525853
0.317868 0.923999 -0.052722
0.28703 0.9291 -0.0527191
0.307557 0.929036 -0.0529677
0.328274 0.879033 -0.0499341
0.348565 0.878943 -0.0500473
0.368814 0.878881 -0.0502182
0.32823 0.889022 -0.0505553
0.32817 0.899 -0.0512182
0.328127 0.908989 -0.0518321
0.328074 0.918964 -0.0524898
0.328029 0.92895 -0.053133
0.338367 0.883973 -0.0503783
0.358673 0.883901 -0.0504432
0.378953 0.883848 -0.0505991
0.36879 0.888861 -0.0508542
0.348526 0.888932 -0.0506541
0.378941 0.893823 -0.051268
0.338326 0.893956 -0.0510454
0.358644 0.893884 -0.0510726
0.348481 0.898908 -0.0513111
0.368766 0.898845 -0.0514944
0.338272 0.903936 -0.0517179
0.358609 0.903865 -0.0517071
0.37892 0.90381 -0.0518979
0.368743 0.908827 -0.052127
0.348443 0.908898 -0.0519126
0.378908 0.913791 -0.0525373
0.338229 0.913926 -0.0523592
0.35858 0.913854 -0.0523104
0.348403 0.918874 -0.0525792
0.368722 0.91881 -0.0527685
0.338188 0.923903 -0.0530203
0.378892 0.923774 -0.0531803
0.358554 0.923837 -0.0529441
0.368703 0.928787 -0.0534206
0.348376 0.928857 -0.0532134
0.399169 0.873825 -0.0498919
0.41938 0.873791 -0.0500024
0.439557 0.873773 -0.049912
0.389018 0.868852 -0.0494997
0.409269 0.868818 -0.0496241
0.429476 0.868792 -0.049612
0.409282 0.858835 -0.0489825
0.399199 0.863846 -0.0492416
0.419388 0.863812 -0.0493491
0.439551 0.863794 -0.0492603
0.399217 0.853864 -0.0485863
0.419397 0.85383 -0.0486873
0.439554 0.853812 -0.0485947
0.389065 0.858877 -0.0488557
0.429478 0.858817 -0.0489536
0.3891 0.848892 -0.048201
0.409305 0.848857 -0.0483184
0.429484 0.848832 -0.048296
0.40932 0.83887 -0.0476792
0.42949 0.838845 -0.0476653
0.399248 0.843886 -0.0479347
0.419408 0.843851 -0.0480502
0.439549 0.843833 -0.047951
0.39927 0.833904 -0.0472668
0.41942 0.833869 -0.0473858
0.439552 0.833852 -0.0472819
0.389156 0.838913 -0.0475563
0.459715 0.873751 -0.0500165
0.479869 0.87375 -0.0498725
0.449631 0.868772 -0.0496088
0.469783 0.868761 -0.0495926
0.48992 0.868761 -0.0495359
0.459699 0.863772 -0.0493714
0.479837 0.863771 -0.0492309
0.459701 0.85379 -0.0487102
0.479832 0.853789 -0.0485711
0.449625 0.858797 -0.0489524
0.469761 0.858786 -0.0489411
0.489884 0.858785 -0.0488886
0.449628 0.848812 -0.0482943
0.469758 0.848801 -0.0482829
0.489873 0.8488 -0.0482331
0.449632 0.838825 -0.0476622
0.459687 0.843812 -0.0480625
0.479802 0.84381 -0.0479287
0.459687 0.833831 -0.0473956
0.479794 0.833829 -0.0472628
0.469736 0.838821 -0.0476402
0.489834 0.83882 -0.0475936
0.409249 0.878793 -0.0502848
0.429474 0.878767 -0.0502817
0.388983 0.878835 -0.0501482
0.399147 0.883809 -0.0505301
0.419371 0.883776 -0.0506499
0.439555 0.883758 -0.0505625
0.388984 0.888815 -0.0507901
0.409235 0.88878 -0.0509099
0.429469 0.888754 -0.0509085
0.399112 0.893783 -0.0511866
0.41936 0.893749 -0.0513105
0.439561 0.893731 -0.0512273
0.388975 0.898799 -0.0514385
0.40922 0.898763 -0.0515595
0.429461 0.898738 -0.0515587
0.399089 0.903769 -0.051813
0.419349 0.903737 -0.0519349
0.439558 0.903719 -0.0518559
0.388975 0.90878 -0.052074
0.38897 0.918762 -0.0527232
0.388974 0.92874 -0.0533776
0.409199 0.908743 -0.0521887
0.42946 0.908718 -0.0521833
0.419337 0.913717 -0.0525632
0.439566 0.913699 -0.0524895
0.399067 0.913757 -0.0524224
0.409189 0.918726 -0.0528245
0.429456 0.9187 -0.0528259
0.399033 0.923731 -0.0530675
0.41933 0.923699 -0.0532059
0.439565 0.923682 -0.0531375
0.409176 0.928702 -0.0534605
0.429456 0.928677 -0.0534717
0.449631 0.878755 -0.0502683
0.469791 0.878744 -0.0502511
0.489935 0.878744 -0.0501955
0.459718 0.883735 -0.0506615
0.47988 0.883734 -0.0505181
0.449635 0.888735 -0.0508961
0.469814 0.888724 -0.0508777
0.489976 0.888724 -0.0508208
0.459731 0.89371 -0.0513132
0.479911 0.893709 -0.0511699
0.449629 0.898719 -0.0515374
0.469815 0.898707 -0.0515225
0.489986 0.898708 -0.051467
0.459731 0.903698 -0.0519313
0.479918 0.903697 -0.05179
0.449635 0.9087 -0.0521571
0.469838 0.908688 -0.0521407
0.490024 0.908689 -0.0520844
0.459747 0.91368 -0.0525555
0.479927 0.913685 -0.052407
0.449634 0.918682 -0.0527998
0.469846 0.91867 -0.0527806
0.490037 0.918671 -0.0527258
0.459751 0.923662 -0.0531952
0.479961 0.923661 -0.0530545
0.449646 0.928659 -0.0534544
0.469872 0.928648 -0.0534268
0.490078 0.92865 -0.0533702
0.500014 0.903699 -0.0518224
0.500012 0.883737 -0.0505505
0.499992 0.873752 -0.0499143
0.52013 0.87375 -0.049881
0.540285 0.873751 -0.0500256
0.51008 0.868761 -0.0495438
0.530217 0.868761 -0.0496003
0.550369 0.868772 -0.0496159
0.530222 0.858778 -0.0489742
[...]
POINT_DATA 18483
VECTORS alpha float
-3.51423e-07 1.86245e-05 -1.21681e-06
-3.41776e-07 1.86531e-05 -1.21824e-06
1.33018e-06 -1.03263e-08 -2.0244e-08
-3.36703e-07 1.86799e-05 -1.22631e-06
1.30177e-06 -1.00252e-08 -1.7922e-08
-3.29818e-07 1.87066e-05 -1.20464e-06
1.27483e-06 -9.77558e-09 -1.17214e-08
-3.08111e-07 1.87348e-05 -1.15565e-06
1.25045e-06 -9.50956e-09 -5.39495e-09
-3.38613e-07 1.67699e-05 -1.07414e-06
1.2261e-06 -9.27261e-09 -1.57508e-09
-2.89292e-07 1.876e-05 -1.17219e-06
-3.21904e-07 1.67965e-05 -1.07405e-06
-2.99425e-07 1.87866e-05 -1.20457e-06
1.20115e-06 -9.02933e-09 2.00393e-09
-3.17078e-07 1.68217e-05 -1.0921e-06
-2.88587e-07 1.8811e-05 -1.17394e-06
1.17766e-06 -8.80203e-09 4.91776e-09
-3.2736e-07 1.68466e-05 -1.09299e-06
1.24192e-06 -9.00864e-09 -1.13935e-07
-2.09723e-07 1.95537e-05 -1.3303e-06
1.28136e-06 -9.40532e-09 8.45882e-08
-2.52976e-07 1.97499e-05 -1.29124e-06
1.23734e-06 -9.36545e-09 6.21481e-08
-2.56317e-07 1.97761e-05 -1.29493e-06
-2.13288e-07 1.95798e-05 -1.32278e-06
1.31423e-06 -9.10083e-09 7.3573e-08
1.25299e-06 -9.05604e-09 8.17486e-08
1.28631e-06 -8.79375e-09 7.10267e-08
1.20922e-06 -9.06628e-09 6.24891e-08
1.2275e-06 -8.70948e-09 8.0327e-08
-2.50184e-07 1.98009e-05 -1.26948e-06
-2.07254e-07 1.96047e-05 -1.30141e-06
-2.43242e-07 1.98246e-05 -1.27941e-06
-1.96726e-07 1.96279e-05 -1.30771e-06
1.18525e-06 -8.80829e-09 6.22885e-08
1.26114e-06 -8.56109e-09 6.85473e-08
1.20046e-06 -8.42244e-09 7.80909e-08
1.23412e-06 -8.25024e-09 6.62996e-08
-1.49373e-07 1.83724e-05 -1.23705e-06
-1.49187e-07 1.8397e-05 -1.22649e-06
1.37605e-06 -7.56268e-09 4.36431e-08
-1.08917e-07 1.66106e-05 -1.11823e-06
-7.23956e-08 1.46608e-05 -9.78416e-07
-1.06422e-07 1.66337e-05 -1.10631e-06
-7.1422e-08 1.4682e-05 -9.77463e-07
1.34423e-06 -8.52771e-09 4.98706e-08
1.40822e-06 -6.73102e-09 3.22661e-08
1.31533e-06 -8.21901e-09 4.83707e-08
1.34602e-06 -7.32714e-09 4.22193e-08
1.37838e-06 -6.51907e-09 3.10147e-08
1.32032e-06 -7.11565e-09 4.09614e-08
-1.4736e-07 1.842e-05 -1.22075e-06
-1.05335e-07 1.66554e-05 -1.09824e-06
-6.85705e-08 1.47011e-05 -9.782e-07
-1.41697e-07 1.84422e-05 -1.23709e-06
-1.02489e-07 1.66763e-05 -1.10299e-06
-7.00831e-08 1.47204e-05 -9.87792e-07
1.28912e-06 -8.01999e-09 4.66805e-08
1.35169e-06 -6.39104e-09 2.93504e-08
1.26086e-06 -9.63087e-09 5.93888e-08
1.30787e-06 -9.70749e-09 8.64013e-08
1.34074e-06 -9.34371e-09 7.56388e-08
-2.4537e-07 1.97233e-05 -1.2855e-06
-2.05528e-07 1.95277e-05 -1.33725e-06
1.28699e-06 -9.88188e-09 5.71227e-08
1.33658e-06 -1.00528e-08 8.81404e-08
1.36936e-06 -9.64401e-09 7.7624e-08
1.39791e-06 -1.10643e-08 4.83494e-08
1.36872e-06 -1.07334e-08 4.95469e-08
1.33982e-06 -1.04569e-08 5.23369e-08
1.31334e-06 -1.01892e-08 5.5501e-08
-2.01663e-07 1.95003e-05 -1.32842e-06
-2.37433e-07 1.96936e-05 -1.29785e-06
1.3652e-06 -1.03944e-08 9.01311e-08
1.39817e-06 -9.92371e-09 7.95753e-08
-2.2903e-07 1.96659e-05 -1.29869e-06
-1.98856e-07 1.94733e-05 -1.3144e-06
1.39446e-06 -1.07812e-08 9.18036e-08
1.42767e-06 -1.02332e-08 8.11459e-08
-2.25716e-07 1.96377e-05 -1.29885e-06
-1.96513e-07 1.94472e-05 -1.31724e-06
1.42874e-06 -1.11618e-08 9.52678e-08
1.45894e-06 -1.06167e-08 8.32591e-08
-2.30494e-07 1.96082e-05 -1.31304e-06
-2.05948e-07 1.94188e-05 -1.33359e-06
1.462e-06 -1.15782e-08 9.90517e-08
1.49164e-06 -1.09294e-08 8.57082e-08
1.43598e-06 -6.86155e-09 3.32751e-08
1.37093e-06 -8.73418e-09 5.15148e-08
1.40377e-06 -7.83592e-09 4.41823e-08
-1.43932e-07 1.8348e-05 -1.23685e-06
-1.00958e-07 1.65881e-05 -1.12134e-06
-6.80924e-08 1.46401e-05 -9.85922e-07
-1.41778e-07 1.83226e-05 -1.2411e-06
-1.38429e-07 1.82976e-05 -1.2294e-06
-1.38061e-07 1.82724e-05 -1.23261e-06
-1.39428e-07 1.82447e-05 -1.22605e-06
1.4336e-06 -8.05603e-09 4.52299e-08
1.39963e-06 -8.99116e-09 5.30584e-08
1.46597e-06 -7.09929e-09 3.36099e-08
-9.79961e-08 1.65638e-05 -1.11971e-06
-6.95115e-08 1.46181e-05 -9.92582e-07
1.42853e-06 -9.20886e-09 5.51183e-08
1.46277e-06 -8.33893e-09 4.62856e-08
1.4956e-06 -7.28066e-09 3.45868e-08
-9.09007e-08 1.65405e-05 -1.11339e-06
-6.90677e-08 1.45969e-05 -9.90156e-07
1.45766e-06 -9.44552e-09 5.61572e-08
1.49299e-06 -8.564e-09 4.5389e-08
1.52626e-06 -7.53051e-09 3.4779e-08
-8.83242e-08 1.65174e-05 -1.10836e-06
-6.96892e-08 1.45753e-05 -9.87819e-07
1.48874e-06 -9.77094e-09 5.75269e-08
1.5249e-06 -8.87939e-09 4.45896e-08
1.55896e-06 -7.75756e-09 3.53598e-08
1.52027e-06 -1.00107e-08 5.87495e-08
-8.28429e-08 1.64924e-05 -1.10114e-06
-6.8201e-08 1.45525e-05 -9.86917e-07
1.55686e-06 -9.1971e-09 4.33252e-08
1.5918e-06 -8.02704e-09 3.55746e-08
-1.72092e-08 1.11416e-05 -7.52276e-07
-1.90423e-08 9.71421e-06 -6.79141e-07
-3.54405e-08 1.27949e-05 -8.44173e-07
1.43647e-06 -5.43841e-09 2.60227e-08
1.46544e-06 -4.85965e-09 2.46691e-08
-3.64382e-08 1.28141e-05 -8.47745e-07
1.40618e-06 -5.28272e-09 2.60979e-08
1.43465e-06 -4.75116e-09 2.38815e-08
-2.00824e-08 1.11585e-05 -7.56584e-07
-2.01336e-08 9.72922e-06 -6.80264e-07
-1.91831e-08 1.11747e-05 -7.64871e-07
-1.93925e-08 9.74339e-06 -6.83568e-07
-3.51771e-08 1.28318e-05 -8.53973e-07
1.37854e-06 -5.15754e-09 2.61805e-08
1.40679e-06 -4.6592e-09 2.35495e-08
1.34888e-06 -4.98566e-09 2.67504e-08
1.37678e-06 -4.48985e-09 2.43075e-08
-3.69781e-08 1.28491e-05 -8.67393e-07
-2.03378e-08 1.11903e-05 -7.72669e-07
-2.03368e-08 9.75687e-06 -6.85824e-07
1.49127e-06 -4.29693e-09 2.43074e-08
1.46012e-06 -4.22504e-09 2.32321e-08
1.43206e-06 -4.16983e-09 2.25936e-08
-1.43696e-08 6.26819e-06 -4.39438e-07
1.53424e-06 -2.76653e-09 2.40635e-08
-1.11855e-08 8.46817e-06 -5.94673e-07
-8.98007e-09 7.33771e-06 -5.07833e-07
-1.14377e-08 8.48162e-06 -5.96043e-07
-1.36252e-08 6.27776e-06 -4.41664e-07
-9.09435e-09 7.34948e-06 -5.09319e-07
1.51237e-06 -3.48296e-09 2.37211e-08
-1.3128e-08 6.2876e-06 -4.43452e-07
1.48079e-06 -3.33407e-09 2.35535e-08
1.50197e-06 -2.72296e-09 2.35191e-08
1.45273e-06 -3.18776e-09 2.34324e-08
1.47369e-06 -2.61579e-09 2.32961e-08
-1.17471e-08 8.49393e-06 -5.97552e-07
-9.21429e-09 7.3602e-06 -5.1303e-07
-1.199e-08 8.50611e-06 -5.96666e-07
-9.69121e-09 7.37093e-06 -5.13151e-07
-1.32389e-08 6.2967e-06 -4.43824e-07
-1.25979e-08 6.30636e-06 -4.43863e-07
1.40144e-06 -4.03418e-09 2.251e-08
1.42114e-06 -3.11046e-09 2.31274e-08
1.44189e-06 -2.57715e-09 2.26067e-08
1.46577e-06 -5.58356e-09 2.56822e-08
1.49505e-06 -4.96162e-09 2.48898e-08
-3.06847e-08 1.2776e-05 -8.49917e-07
-1.46716e-08 9.69944e-06 -6.76154e-07
-1.27118e-08 1.11242e-05 -7.47212e-07
1.4962e-06 -5.77896e-09 2.44352e-08
1.52572e-06 -5.12329e-09 2.4003e-08
-3.20696e-08 1.27563e-05 -8.5958e-07
-9.387e-09 1.11066e-05 -7.44071e-07
-1.46543e-08 9.68373e-06 -6.73283e-07
1.5569e-06 -5.2096e-09 2.35381e-08
1.52633e-06 -5.99592e-09 2.30067e-08
-3.09983e-08 1.27373e-05 -8.59657e-07
-3.01799e-08 1.27182e-05 -8.56914e-07
-2.74326e-08 1.26974e-05 -8.58568e-07
-8.1987e-09 1.10889e-05 -7.40746e-07
-1.37461e-08 9.66831e-06 -6.69357e-07
1.55975e-06 -6.26946e-09 2.21261e-08
1.58862e-06 -5.33308e-09 2.22447e-08
-5.7143e-09 1.10718e-05 -7.36877e-07
-1.2068e-08 9.65332e-06 -6.67433e-07
1.5937e-06 -6.56461e-09 2.18197e-08
1.62187e-06 -5.45733e-09 2.12016e-08
-1.92876e-09 1.10531e-05 -7.35085e-07
-1.01887e-08 9.63659e-06 -6.67238e-07
1.62892e-06 -6.77692e-09 2.15163e-08
1.65657e-06 -5.45111e-09 2.08292e-08
1.52121e-06 -4.36453e-09 2.47908e-08
1.54281e-06 -3.56213e-09 2.39269e-08
1.56434e-06 -2.86556e-09 2.40586e-08
1.55264e-06 -4.51871e-09 2.46315e-08
1.58436e-06 -4.59384e-09 2.48352e-08
1.6171e-06 -4.75715e-09 2.47438e-08
1.65193e-06 -4.85979e-09 2.49637e-08
1.68657e-06 -4.9543e-09 2.55371e-08
-7.31824e-09 8.45516e-06 -5.9113e-07
-6.10952e-09 7.32655e-06 -5.03536e-07
-1.33619e-08 6.2583e-06 -4.38087e-07
1.59717e-06 -2.92693e-09 2.41379e-08
1.57471e-06 -3.72841e-09 2.3581e-08
-1.26444e-08 6.24785e-06 -4.36056e-07
-6.53779e-09 8.44102e-06 -5.88969e-07
-5.18739e-09 7.31423e-06 -5.02006e-07
1.6069e-06 -3.83924e-09 2.36882e-08
1.62892e-06 -3.07598e-09 2.4241e-08
-5.56795e-09 8.4274e-06 -5.88257e-07
-4.83156e-09 7.30244e-06 -5.01147e-07
-1.30776e-08 6.23746e-06 -4.34379e-07
1.66309e-06 -3.17416e-09 2.40152e-08
1.64011e-06 -4.02632e-09 2.31485e-08
-1.29306e-08 6.2275e-06 -4.3176e-07
-5.67165e-09 8.41364e-06 -5.8917e-07
-4.61418e-09 7.29065e-06 -5.01645e-07
1.67525e-06 -4.12715e-09 2.32468e-08
1.69776e-06 -3.31382e-09 2.37776e-08
-4.71518e-09 8.39887e-06 -5.89673e-07
-1.26793e-08 6.21621e-06 -4.32136e-07
-4.06321e-09 7.27748e-06 -5.03883e-07
1.73385e-06 -3.33864e-09 2.40177e-08
1.71034e-06 -4.25869e-09 2.32327e-08
2.21115e-10 5.22287e-06 -3.69088e-07
-4.31095e-10 4.181e-06 -2.97419e-07
-2.83243e-09 3.13714e-06 -2.24493e-07
1.55276e-06 -2.49978e-09 1.57252e-08
1.56477e-06 -1.48139e-09 1.44415e-08
1.57871e-06 -1.24779e-09 1.38666e-08
1.53244e-06 -1.4605e-09 1.40869e-08
5.00574e-10 5.23094e-06 -3.69629e-07
-6.31435e-10 4.18742e-06 -2.98237e-07
-2.79162e-09 3.14199e-06 -2.25145e-07
6.48918e-10 5.23925e-06 -3.7054e-07
-7.72224e-10 4.19418e-06 -2.97406e-07
-2.7337e-09 3.14707e-06 -2.24687e-07
1.51941e-06 -2.32492e-09 1.47986e-08
1.54532e-06 -1.21502e-09 1.32435e-08
1.49042e-06 -2.18695e-09 1.43306e-08
1.50276e-06 -1.41816e-09 1.39093e-08
1.51603e-06 -1.17372e-09 1.29816e-08
1.47095e-06 -1.38547e-09 1.36441e-08
1.48405e-06 -1.14098e-09 1.30038e-08
9.42037e-10 5.24696e-06 -3.70278e-07
-1.51243e-09 4.20027e-06 -2.99291e-07
-2.97823e-09 3.15168e-06 -2.25926e-07
7.25199e-10 5.25501e-06 -3.70576e-07
-1.76425e-09 4.20676e-06 -2.99527e-07
-2.98385e-09 3.15656e-06 -2.26163e-07
1.45778e-06 -2.0585e-09 1.37356e-08
-8.71536e-10 2.09158e-06 -1.49876e-07
-4.30703e-10 1.04568e-06 -7.50258e-08
1.58755e-06 -6.33908e-10 1.10019e-08
1.59375e-06 -1.03442e-10 1.13401e-08
1.59585e-06 1.31068e-10 -2.47616e-09
-8.4545e-10 2.0948e-06 -1.50527e-07
-3.60587e-10 1.04729e-06 -7.5284e-08
-8.57485e-10 2.09821e-06 -1.50135e-07
-3.28184e-10 1.049e-06 -7.51013e-08
1.55399e-06 -5.91492e-10 1.07118e-08
1.56011e-06 -1.12403e-10 1.0674e-08
1.5622e-06 8.1396e-11 -2.63682e-09
1.52447e-06 -5.44781e-10 1.06221e-08
1.53045e-06 -1.11271e-10 1.02253e-08
1.53249e-06 5.99915e-11 -2.74306e-09
1.49232e-06 -5.08711e-10 1.06482e-08
-9.92062e-10 2.10131e-06 -1.50836e-07
-3.09857e-10 1.05055e-06 -7.53959e-08
-9.9994e-10 2.10462e-06 -1.50522e-07
-3.01115e-10 1.0522e-06 -7.52871e-08
1.49753e-06 -1.16624e-10 9.84312e-09
1.49956e-06 2.81891e-11 -2.99456e-09
1.5966e-06 -1.51352e-09 1.47907e-08
1.61079e-06 -1.27065e-09 1.431e-08
1.58373e-06 -2.65073e-09 1.61686e-08
3.92182e-10 5.21455e-06 -3.68546e-07
2.93881e-11 4.17432e-06 -2.97515e-07
-2.73064e-09 3.1321e-06 -2.24676e-07
1.61688e-06 -2.66711e-09 1.67824e-08
1.62945e-06 -1.5521e-09 1.47502e-08
1.64393e-06 -1.304e-09 1.44878e-08
1.02227e-09 5.2057e-06 -3.67551e-07
2.59013e-10 4.16726e-06 -2.97186e-07
-2.69561e-09 3.1268e-06 -2.24107e-07
1.64899e-06 -2.76008e-09 1.73258e-08
1.66185e-06 -1.59579e-09 1.4925e-08
1.67661e-06 -1.33101e-09 1.48179e-08
5.70103e-10 5.19685e-06 -3.66977e-07
3.68125e-10 4.1602e-06 -2.96769e-07
-2.78038e-09 3.12149e-06 -2.23646e-07
1.68357e-06 -2.79395e-09 1.81175e-08
1.71886e-06 -2.92047e-09 1.84758e-08
1.7555e-06 -2.92499e-09 1.93859e-08
1.69715e-06 -1.6237e-09 1.50755e-08
1.71216e-06 -1.34264e-09 1.50691e-08
5.35402e-10 4.15351e-06 -2.95515e-07
-2.86263e-09 3.11643e-06 -2.22839e-07
1.30888e-10 5.1883e-06 -3.65261e-07
1.7327e-06 -1.69421e-09 1.48533e-08
1.74796e-06 -1.39899e-09 1.50335e-08
9.97486e-10 5.17894e-06 -3.6468e-07
5.45497e-10 4.1459e-06 -2.95338e-07
-3.00491e-09 3.11072e-06 -2.22614e-07
1.76998e-06 -1.72845e-09 1.50667e-08
1.78543e-06 -1.40528e-09 1.52381e-08
1.61903e-06 -6.74869e-10 1.10011e-08
1.62534e-06 -1.0375e-10 1.15177e-08
1.62747e-06 1.51394e-10 -2.64622e-09
-7.23021e-10 2.0882e-06 -1.49783e-07
-4.2646e-10 1.04398e-06 -7.50164e-08
1.65323e-06 -7.10313e-10 1.11805e-08
1.6596e-06 -8.83313e-11 1.18123e-08
1.66175e-06 1.98674e-10 -2.55275e-09
-6.38565e-10 2.08469e-06 -1.49398e-07
-4.21648e-10 1.04222e-06 -7.48469e-08
1.68617e-06 -7.69106e-10 1.12177e-08
1.69265e-06 -1.13277e-10 1.18099e-08
1.69487e-06 2.0396e-10 -2.62667e-09
-7.08575e-10 2.08116e-06 -1.48728e-07
-5.11211e-10 1.04045e-06 -7.4577e-08
1.72199e-06 -7.90879e-10 1.17141e-08
1.72858e-06 -1.16905e-10 1.20446e-08
1.73088e-06 2.43366e-10 -2.53108e-09
-7.72687e-10 2.07776e-06 -1.47981e-07
-6.35174e-10 1.03871e-06 -7.42781e-08
1.75799e-06 -8.51698e-10 1.1901e-08
1.76466e-06 -1.39182e-10 1.21019e-08
1.76696e-06 2.55093e-10 -2.66163e-09
-7.70497e-10 2.07393e-06 -1.47838e-07
-6.66054e-10 1.03681e-06 -7.41486e-08
1.79569e-06 -8.1696e-10 1.29365e-08
1.80239e-06 -7.45767e-11 1.24996e-08
1.80466e-06 3.66e-10 -2.52871e-09
-1.1506e-13 1.17706e-10 -8.46708e-12
3.71139e-14 1.01528e-10 -7.32239e-12
4.0145e-14 1.01244e-10 -7.30049e-12
-4.27871e-10 -1.04548e-06 7.52202e-08
-8.84874e-10 -2.09139e-06 1.50246e-07
1.59584e-06 -1.33323e-10 2.56802e-09
1.59376e-06 1.04823e-10 -1.14004e-08
1.58755e-06 6.29297e-10 -1.10283e-08
1.56082e-06 9.4275e-11 -1.11375e-08
1.5547e-06 5.81441e-10 -1.08517e-08
2.57723e-14 1.01307e-10 -7.32186e-12
-3.54711e-10 -1.04709e-06 7.55996e-08
-8.91475e-10 -2.09461e-06 1.51181e-07
1.91159e-14 1.01625e-10 -7.32079e-12
-3.33406e-10 -1.0488e-06 7.54455e-08
-9.42093e-10 -2.09801e-06 1.50799e-07
1.56219e-06 -9.57569e-11 2.65503e-09
-9.78174e-10 -2.10114e-06 1.51416e-07
1.53244e-06 -8.73751e-11 2.59327e-09
1.53046e-06 1.04889e-10 -1.07556e-08
1.52444e-06 5.49392e-10 -1.04668e-08
1.49818e-06 9.66158e-11 -1.0511e-08
1.49225e-06 5.10083e-10 -1.04967e-08
7.67583e-15 1.02093e-10 -7.36934e-12
-3.12681e-10 -1.05035e-06 7.57694e-08
6.52444e-15 1.02706e-10 -7.40195e-12
-3.19828e-10 -1.052e-06 7.57342e-08
-1.15072e-09 -2.10441e-06 1.51429e-07
1.49948e-06 -5.41623e-11 2.83168e-09
-2.86698e-09 -3.13694e-06 2.25248e-07
-5.20048e-10 -4.18083e-06 2.98314e-07
2.04882e-10 -5.22265e-06 3.69442e-07
1.57873e-06 1.24827e-09 -1.40553e-08
1.56477e-06 1.47338e-09 -1.45359e-08
1.55277e-06 2.49514e-09 -1.57961e-08
1.54611e-06 1.22872e-09 -1.35789e-08
1.53245e-06 1.45158e-09 -1.41907e-08
-2.85145e-09 -3.1418e-06 2.2619e-07
-8.40618e-10 -4.18725e-06 2.99603e-07
4.72695e-10 -5.23072e-06 3.69998e-07
-2.76862e-09 -3.14688e-06 2.25919e-07
-9.92517e-10 -4.19401e-06 2.99006e-07
6.15252e-10 -5.23904e-06 3.70929e-07
1.51941e-06 2.32411e-09 -1.48783e-08
-1.427e-09 -4.20015e-06 3.00827e-07
1.51609e-06 1.19885e-09 -1.32248e-08
1.50278e-06 1.41e-09 -1.40217e-08
1.49043e-06 2.18494e-09 -1.44092e-08
1.48407e-06 1.16237e-09 -1.32429e-08
1.47097e-06 1.37575e-09 -1.37747e-08
-2.94612e-09 -3.15147e-06 2.27271e-07
8.88965e-10 -5.24675e-06 3.70759e-07
-3.00678e-09 -3.15637e-06 2.27401e-07
-2.02668e-09 -4.20659e-06 3.01015e-07
6.44228e-10 -5.2548e-06 3.71068e-07
1.45779e-06 2.05456e-09 -1.38338e-08
-8.80057e-14 1.02265e-10 -7.36427e-12
-8.65206e-14 9.99535e-11 -7.16653e-12
3.82985e-14 9.97338e-11 -7.17924e-12
1.62746e-06 -1.50996e-10 2.67689e-09
1.62533e-06 1.05933e-10 -1.15185e-08
1.61903e-06 6.71864e-10 -1.10611e-08
-4.27065e-10 -1.04377e-06 7.50958e-08
-7.20459e-10 -2.088e-06 1.49965e-07
1.66175e-06 -1.96187e-10 2.59432e-09
1.65959e-06 9.23021e-11 -1.18062e-08
1.65322e-06 7.10327e-10 -1.12028e-08
-4.18983e-10 -1.04201e-06 7.48912e-08
-6.27057e-10 -2.08449e-06 1.49496e-07
1.69483e-06 -2.0118e-10 2.68437e-09
1.69255e-06 1.17728e-10 -1.1791e-08
1.68601e-06 7.70104e-10 -1.1197e-08
-5.06558e-10 -1.04021e-06 7.46706e-08
-6.96529e-10 -2.08091e-06 1.48963e-07
1.73091e-06 -2.4309e-10 2.59408e-09
1.72869e-06 1.1832e-10 -1.20006e-08
1.72217e-06 7.93676e-10 -1.16326e-08
-7.5737e-10 -2.07755e-06 1.48284e-07
-6.28506e-10 -1.0385e-06 7.44049e-08
1.76696e-06 -2.53995e-10 2.71744e-09
1.76465e-06 1.40785e-10 -1.20548e-08
1.75799e-06 8.56791e-10 -1.17678e-08
-6.64112e-10 -1.03661e-06 7.43398e-08
-7.6961e-10 -2.07372e-06 1.4828e-07
1.80466e-06 -3.62832e-10 2.58939e-09
1.80238e-06 7.82628e-11 -1.24422e-08
1.79566e-06 8.22946e-10 -1.27642e-08
1.61078e-06 1.27264e-09 -1.43647e-08
1.59661e-06 1.50576e-09 -1.48654e-08
1.58374e-06 2.64574e-09 -1.62328e-08
-2.74623e-09 -3.13189e-06 2.25115e-07
2.77578e-11 -4.17412e-06 2.97983e-07
3.04344e-10 -5.21434e-06 3.69188e-07
1.64392e-06 1.30852e-09 -1.45149e-08
1.62944e-06 1.54683e-09 -1.48238e-08
1.61687e-06 2.66465e-09 -1.68497e-08
-2.69892e-09 -3.12658e-06 2.24417e-07
2.75526e-10 -4.16705e-06 2.97462e-07
9.55549e-10 -5.20548e-06 3.68105e-07
1.67639e-06 1.33609e-09 -1.48214e-08
1.66158e-06 1.59171e-09 -1.49959e-08
1.64865e-06 2.75852e-09 -1.73946e-08
-2.78127e-09 -3.12123e-06 2.24108e-07
3.85449e-10 -4.15995e-06 2.97288e-07
5.06265e-10 -5.1966e-06 3.67611e-07
1.71241e-06 1.3476e-09 -1.50359e-08
1.69749e-06 1.62058e-09 -1.51514e-08
-2.85987e-09 -3.1162e-06 2.23334e-07
5.59236e-10 -4.1533e-06 2.96057e-07
7.04645e-11 -5.18808e-06 3.65986e-07
1.74795e-06 1.40486e-09 -1.4958e-08
1.73272e-06 1.69104e-09 -1.48896e-08
-3.02458e-09 -3.11049e-06 2.23285e-07
5.34304e-10 -4.14569e-06 2.96111e-07
9.70327e-10 -5.17871e-06 3.65178e-07
1.7854e-06 1.41158e-09 -1.51224e-08
1.76995e-06 1.7262e-09 -1.50656e-08
1.68399e-06 2.79381e-09 -1.81982e-08
1.71887e-06 2.92003e-09 -1.85163e-08
1.75546e-06 2.92578e-09 -1.9389e-08
-1.4357e-08 -6.26798e-06 4.39679e-07
1.53425e-06 2.76077e-09 -2.42866e-08
-9.02524e-09 -7.3375e-06 5.08686e-07
-1.11476e-08 -8.46797e-06 5.95183e-07
-1.36155e-08 -6.27755e-06 4.41927e-07
-9.09394e-09 -7.34927e-06 5.09942e-07
-1.1345e-08 -8.48143e-06 5.96383e-07
1.51237e-06 3.48077e-09 -2.38874e-08
-1.31201e-08 -6.2874e-06 4.43773e-07
1.50197e-06 2.72281e-09 -2.36819e-08
1.48078e-06 3.33892e-09 -2.36682e-08
1.47369e-06 2.61624e-09 -2.3402e-08
-9.2177e-09 -7.35999e-06 5.13775e-07
-1.16566e-08 -8.49373e-06 5.9807e-07
-1.32435e-08 -6.2965e-06 4.44233e-07
-9.69618e-09 -7.37072e-06 5.13914e-07
-1.18872e-08 -8.50591e-06 5.97185e-07
1.45212e-06 3.24553e-09 -2.32902e-08
1.49129e-06 4.29988e-09 -2.44225e-08
1.46015e-06 4.22939e-09 -2.33586e-08
1.4321e-06 4.17527e-09 -2.27371e-08
-1.26412e-08 -6.30615e-06 4.44308e-07
1.4419e-06 2.57586e-09 -2.27535e-08
1.42114e-06 3.1145e-09 -2.32337e-08
1.40148e-06 4.0395e-09 -2.26547e-08
-1.90949e-08 -9.71405e-06 6.79449e-07
-1.72274e-08 -1.11414e-05 7.52516e-07
1.46545e-06 4.8601e-09 -2.47491e-08
1.43647e-06 5.43666e-09 -2.60736e-08
-3.54119e-08 -1.27948e-05 8.4433e-07
1.43467e-06 4.75228e-09 -2.39686e-08
1.40619e-06 5.28085e-09 -2.61524e-08
-2.02407e-08 -9.7291e-06 6.80795e-07
-2.01433e-08 -1.11584e-05 7.57025e-07
-3.64351e-08 -1.2814e-05 8.48074e-07
-1.94573e-08 -9.74327e-06 6.83902e-07
-1.92165e-08 -1.11746e-05 7.65155e-07
1.40682e-06 4.66104e-09 -2.36501e-08
1.37855e-06 5.15604e-09 -2.62459e-08
-3.51663e-08 -1.28317e-05 8.54196e-07
1.37682e-06 4.49145e-09 -2.44088e-08
1.3489e-06 4.98378e-09 -2.68163e-08
-2.04087e-08 -9.75675e-06 6.86155e-07
-2.03785e-08 -1.11902e-05 7.72948e-07
-3.69764e-08 -1.2849e-05 8.6761e-07
1.56435e-06 2.85893e-09 -2.42678e-08
1.54281e-06 3.55834e-09 -2.40873e-08
1.52123e-06 4.36892e-09 -2.49216e-08
-1.34421e-08 -6.25811e-06 4.38634e-07
-6.26573e-09 -7.32636e-06 5.04661e-07
-7.40312e-09 -8.455e-06 5.91902e-07
1.59716e-06 2.92322e-09 -2.43391e-08
1.5747e-06 3.72738e-09 -2.37385e-08
-1.26979e-08 -6.24765e-06 4.365e-07
-5.30662e-09 -7.31403e-06 5.02985e-07
-6.57853e-09 -8.44085e-06 5.8958e-07
1.62853e-06 3.07356e-09 -2.44301e-08
1.60644e-06 3.83897e-09 -2.38394e-08
-1.31254e-08 -6.23721e-06 4.34902e-07
-4.94416e-09 -7.3022e-06 5.02177e-07
-5.5973e-09 -8.42719e-06 5.88904e-07
1.66361e-06 3.1743e-09 -2.42108e-08
1.6407e-06 4.0295e-09 -2.33142e-08
-1.29714e-08 -6.22729e-06 4.32375e-07
-4.72227e-09 -7.29044e-06 5.02731e-07
-5.69256e-09 -8.41344e-06 5.89877e-07
1.69778e-06 3.31454e-09 -2.39125e-08
1.67526e-06 4.13063e-09 -2.33516e-08
-1.2685e-08 -6.21599e-06 4.32532e-07
-4.1053e-09 -7.27727e-06 5.04559e-07
-4.68015e-09 -8.39868e-06 5.90049e-07
1.7338e-06 3.3413e-09 -2.40797e-08
1.71027e-06 4.2644e-09 -2.32739e-08
1.55264e-06 4.52312e-09 -2.47589e-08
1.58386e-06 4.59631e-09 -2.49476e-08
1.6178e-06 4.75966e-09 -2.48689e-08
1.65196e-06 4.8601e-09 -2.50715e-08
1.68653e-06 4.95281e-09 -2.56342e-08
1.49506e-06 4.96376e-09 -2.49857e-08
1.46577e-06 5.5838e-09 -2.57496e-08
-1.4735e-08 -9.69928e-06 6.76457e-07
-1.27417e-08 -1.11241e-05 7.47432e-07