# vtk DataFile Version 3.0
vtk output
ASCII
DATASET POLYDATA
POINTS 3636 float
0.20001 0.185152 -0.0102209
0.220022 0.185083 -0.0100992
0.240031 0.185032 -0.0100496
0.139957 0.185247 -0.00971072
0.159977 0.185194 -0.00990965
0.179999 0.185141 -0.00998518
0.190007 0.180189 -0.0099503
0.210019 0.1801 -0.0097882
0.230029 0.180031 -0.00968922
0.149978 0.180216 -0.00946196
0.169998 0.180151 -0.00958152
0.200017 0.175161 -0.00955694
0.220027 0.175065 -0.00941546
0.159995 0.17521 -0.00922045
0.180015 0.175134 -0.00927795
0.129966 0.1803 -0.00924195
0.190017 0.1702 -0.00918921
0.24004 0.174972 -0.0093819
0.119983 0.185004 -0.00880674
0.139983 0.175301 -0.00906986
0.21003 0.170093 -0.00905933
0.230038 0.170005 -0.00894006
0.150003 0.170257 -0.0087198
0.17002 0.170178 -0.00882838
0.200029 0.165161 -0.00872666
0.259979 0.185281 -0.0100481
0.279989 0.18522 -0.0101017
0.299989 0.185184 -0.0101673
0.320031 0.185196 -0.0102238
0.340025 0.185143 -0.0101772
0.360009 0.185113 -0.0101257
0.249987 0.180315 -0.00965588
0.269995 0.180233 -0.00970253
0.289994 0.180179 -0.00975751
0.309986 0.180151 -0.00981685
0.330028 0.180137 -0.00983333
0.350015 0.180093 -0.0097862
0.369993 0.180076 -0.00972874
0.260002 0.175268 -0.00936663
0.279998 0.175197 -0.0094206
0.299986 0.175157 -0.00948132
0.359998 0.17509 -0.00945388
0.320028 0.175167 -0.00954888
0.340016 0.175104 -0.00951076
0.33002 0.170134 -0.0091888
0.40001 0.185194 -0.0101691
0.420008 0.185175 -0.010207
0.380011 0.185221 -0.010131
0.460018 0.18516 -0.0101819
0.480012 0.185152 -0.0101146
0.440021 0.185174 -0.0102444
0.390019 0.180176 -0.00979126
0.410014 0.180143 -0.00983457
0.43001 0.180138 -0.00986658
0.470014 0.180111 -0.0097946
0.490007 0.180114 -0.00972559
0.45002 0.180121 -0.00984928
0.38003 0.175203 -0.00946602
0.400022 0.175154 -0.00951811
0.420015 0.175136 -0.0095564
0.440024 0.175149 -0.00958886
0.460017 0.175112 -0.00953397
0.480008 0.175101 -0.00946877
0.390034 0.170171 -0.00916529
0.410024 0.170136 -0.00921471
0.430015 0.170136 -0.00924224
0.450021 0.17012 -0.00923336
0.470012 0.170093 -0.0091785
0.250039 0.17031 -0.00887888
0.270027 0.170223 -0.00891924
0.290009 0.170163 -0.0089694
0.309986 0.170132 -0.00902544
0.350002 0.170063 -0.00902721
0.369974 0.170039 -0.00898585
0.489998 0.170074 -0.00899439
0.320041 0.165165 -0.00859708
0.400041 0.165147 -0.00860302
0.420024 0.165135 -0.00863406
0.440027 0.165146 -0.00865667
0.460011 0.165105 -0.00861891
0.499995 0.18516 -0.0100473
0.519988 0.185152 -0.0101147
0.539983 0.18516 -0.0101821
0.559979 0.185174 -0.0102446
0.579992 0.185176 -0.0102071
0.59999 0.185194 -0.0101693
0.619989 0.185222 -0.0101313
0.509993 0.180114 -0.00972583
0.529986 0.180111 -0.0097947
0.54998 0.180121 -0.00984925
0.56999 0.180138 -0.00986695
0.589986 0.180143 -0.00983479
0.609981 0.180175 -0.0097913
0.500001 0.175117 -0.00939365
0.519992 0.175102 -0.00946899
0.539984 0.175112 -0.00953394
0.559976 0.175149 -0.00958855
0.579985 0.175136 -0.00955702
0.599978 0.175154 -0.00951843
0.61997 0.175202 -0.00946594
0.529989 0.170093 -0.00917863
0.549979 0.17012 -0.00923326
0.569986 0.170136 -0.00924294
0.589976 0.170136 -0.00921523
0.609966 0.17017 -0.00916555
0.639991 0.185113 -0.0101256
0.659975 0.185143 -0.0101771
0.679969 0.185196 -0.0102236
0.700011 0.185184 -0.0101674
0.720011 0.18522 -0.0101018
0.740021 0.185281 -0.0100482
0.630007 0.180076 -0.00972926
0.649985 0.180093 -0.00978703
0.669972 0.180137 -0.00983458
0.690014 0.180151 -0.00981682
0.710006 0.180179 -0.0097575
0.730006 0.180233 -0.00970255
0.750013 0.180315 -0.00965592
0.640002 0.17509 -0.00945508
0.659984 0.175104 -0.00951268
0.679972 0.175166 -0.00955176
0.700014 0.175157 -0.00948128
0.720002 0.175197 -0.00942057
0.739998 0.175268 -0.00936661
0.66998 0.170134 -0.00919067
0.510002 0.170074 -0.00899473
0.630026 0.170039 -0.00898661
0.649998 0.170063 -0.00902851
0.690014 0.170132 -0.00902538
0.709991 0.170164 -0.00896936
0.729973 0.170223 -0.00891921
0.749961 0.17031 -0.00887885
0.539989 0.165105 -0.00861895
0.559973 0.165146 -0.00865648
0.579976 0.165135 -0.00863473
0.599959 0.165147 -0.0086035
0.679959 0.165165 -0.00859923
0.759969 0.185032 -0.0100497
0.779979 0.185083 -0.0100992
0.79999 0.185152 -0.0102209
0.769971 0.180031 -0.00968924
0.789981 0.1801 -0.00978819
0.809993 0.180189 -0.00995027
0.820001 0.185141 -0.00998372
0.840023 0.185194 -0.00990864
0.860043 0.185247 -0.00971008
0.779973 0.175066 -0.00941545
0.799983 0.175161 -0.00955691
0.830002 0.180151 -0.00957896
0.850022 0.180217 -0.00946025
0.809983 0.1702 -0.00918917
0.75996 0.174972 -0.00938193
0.819985 0.175134 -0.0092755
0.840005 0.17521 -0.00921879
0.870034 0.1803 -0.00924108
0.769962 0.170005 -0.00894007
0.78997 0.170094 -0.00905931
0.860017 0.175301 -0.00906873
0.880017 0.185005 -0.00880692
0.799971 0.165161 -0.00872663
0.82998 0.170178 -0.00882649
0.849997 0.170257 -0.00871859
0.0598618 0.245261 -0.00884224
0.109956 0.190035 -0.00887865
0.119932 0.195049 -0.00951858
0.109902 0.200098 -0.00954359
0.119886 0.20515 -0.0101909
0.0998812 0.205112 -0.00948123
0.109861 0.210209 -0.0101572
0.119852 0.215318 -0.010835
0.0998433 0.215218 -0.0100264
0.10983 0.220341 -0.010793
0.0898305 0.220233 -0.00981529
0.119819 0.2253 -0.0115378
0.0998109 0.225355 -0.0106556
0.109796 0.230322 -0.0114617
0.0898021 0.230379 -0.0103722
0.119784 0.235286 -0.0122753
0.0997766 0.23534 -0.011323
0.109761 0.240327 -0.0122052
0.0897707 0.240378 -0.0110115
0.119752 0.245314 -0.012979
0.0997493 0.245357 -0.0119722
0.0797738 0.245395 -0.0105364
0.109735 0.250345 -0.0128263
0.0897454 0.250377 -0.0115821
0.0697867 0.250421 -0.00992333
0.0797967 0.235393 -0.00999008
0.0698119 0.240419 -0.00942872
0.07983 0.225235 -0.00948987
0.0898692 0.210127 -0.00927901
0.0798756 0.21515 -0.0089291
0.069857 0.230297 -0.00892132
0.099931 0.195063 -0.00886772
0.089919 0.200094 -0.00871562
0.0698982 0.220203 -0.00846968
0.0598042 0.255439 -0.00923259
0.049856 0.260179 -0.00851311
0.0597633 0.265413 -0.00958791
0.0497979 0.270352 -0.00870013
0.0597328 0.275401 -0.00982632
0.0497746 0.280395 -0.00879823
0.0597167 0.28542 -0.00990846
0.0497703 0.290392 -0.00874405
0.0597197 0.295434 -0.0097826
0.0497826 0.300387 -0.00852594
0.0597358 0.305448 -0.00952545
0.11972 0.255364 -0.013574
0.0997142 0.255374 -0.0125426
0.0797401 0.255395 -0.0110486
0.109694 0.260395 -0.0133673
0.0897028 0.260397 -0.0120624
0.0697471 0.260416 -0.0103668
0.119683 0.265427 -0.0141101
0.0996743 0.265416 -0.0130137
0.0797001 0.265406 -0.011487
0.109662 0.270482 -0.0137693
0.0896686 0.270441 -0.0124454
0.0697113 0.270408 -0.0107135
0.119659 0.275555 -0.0144193
0.0996462 0.275492 -0.0133332
0.0796714 0.27544 -0.0117592
0.109638 0.280567 -0.0140568
0.0896423 0.280493 -0.0127218
0.0696856 0.280426 -0.0109386
0.079651 0.285482 -0.0119348
0.0996286 0.285594 -0.0134182
0.119639 0.285659 -0.0145918
0.0896353 0.290572 -0.0127194
0.0696747 0.29046 -0.0109833
0.109622 0.290664 -0.014121
0.0796506 0.29554 -0.0118372
0.119627 0.295731 -0.0146808
0.0996181 0.295646 -0.013464
0.0696804 0.300496 -0.0107998
0.109617 0.300719 -0.0140971
0.0896256 0.300618 -0.0126511
0.0796545 0.30557 -0.0116411
0.119628 0.305779 -0.0145658
0.0996199 0.305689 -0.0133101
0.0696941 0.310513 -0.0104712
0.109624 0.310756 -0.0138207
0.0896353 0.310646 -0.0123462
0.129922 0.190244 -0.00988379
0.149947 0.190209 -0.0101611
0.169975 0.190171 -0.010292
0.179974 0.195244 -0.0106524
0.13991 0.195247 -0.0103889
0.159943 0.195225 -0.0106053
0.169949 0.20032 -0.010902
0.129875 0.200264 -0.0105145
0.149912 0.200264 -0.0108201
0.179959 0.205395 -0.0113338
0.139875 0.205321 -0.0109994
0.159917 0.205327 -0.0112593
0.169931 0.210394 -0.0116013
0.149887 0.210403 -0.0113957
0.129838 0.210319 -0.0111743
0.179945 0.215402 -0.0119955
0.139851 0.215412 -0.0115433
0.1599 0.215426 -0.0118414
0.149864 0.22044 -0.0120513
0.169915 0.220441 -0.0122758
0.129811 0.220429 -0.0116869
0.17993 0.225455 -0.0126393
0.15988 0.225485 -0.0125003
0.139826 0.225497 -0.0122113
0.149843 0.230497 -0.0127336
0.169899 0.230485 -0.0129598
0.129784 0.230502 -0.0123472
0.159862 0.235511 -0.0132374
0.179915 0.23548 -0.013392
0.139801 0.235536 -0.0129465
0.149823 0.240536 -0.0134524
0.169882 0.240517 -0.013695
0.12976 0.240552 -0.0130302
0.159844 0.245556 -0.0139424
0.179899 0.245534 -0.0141108
0.139781 0.245574 -0.0136251
0.189986 0.190202 -0.0106615
0.210011 0.190143 -0.010489
0.230028 0.190095 -0.0103921
0.249994 0.190306 -0.0103972
0.19999 0.195225 -0.0109671
0.22002 0.19518 -0.0108178
0.240037 0.19514 -0.0107566
0.189952 0.200326 -0.0113907
0.210002 0.200295 -0.0111845
0.230032 0.200263 -0.0110702
0.250001 0.200416 -0.0109773
0.199969 0.205427 -0.0116697
0.220018 0.205401 -0.0114994
0.240042 0.205368 -0.011431
0.189914 0.210457 -0.0122076
0.209989 0.210433 -0.0119619
0.230033 0.210399 -0.011812
0.199941 0.215484 -0.0124463
0.22001 0.215446 -0.0122284
0.240043 0.215395 -0.0121028
0.189873 0.220552 -0.0129299
0.209972 0.220517 -0.0126537
0.23003 0.220467 -0.0124565
0.240043 0.225481 -0.0126448
0.199916 0.225626 -0.0131076
0.220002 0.225565 -0.0128534
0.189836 0.230706 -0.013686
0.209957 0.230643 -0.0133781
0.230027 0.23056 -0.0131357
0.240039 0.235514 -0.0133947
0.199892 0.235724 -0.0139622
0.219993 0.235627 -0.0136759
0.189806 0.240807 -0.0145145
0.209944 0.240713 -0.0142076
0.230021 0.240604 -0.013938
0.199872 0.245806 -0.0147562
0.219985 0.245697 -0.0144675
0.240033 0.245577 -0.014204
0.249999 0.220545 -0.012489
0.149793 0.250586 -0.0141211
0.169858 0.250582 -0.0143835
0.129723 0.25059 -0.0136652
0.159809 0.255626 -0.0146084
0.179873 0.255625 -0.0147712
0.139737 0.25562 -0.0142567
0.169829 0.26068 -0.0149926
0.129675 0.260632 -0.0142639
0.149753 0.260656 -0.0147902
0.159778 0.265713 -0.0152013
0.17985 0.265741 -0.015353
0.139697 0.265679 -0.0148278
0.169802 0.270782 -0.0155718
0.129634 0.270678 -0.0147979
0.14972 0.270731 -0.0153247
0.179828 0.275869 -0.0158488
0.139662 0.275739 -0.0153246
0.159749 0.275799 -0.0157153
0.129601 0.280726 -0.0152138
0.149693 0.280812 -0.0157391
[...]
POINT_DATA 3636
VECTORS alpha float
4.00115e-09 1.48069e-05 -1.17724e-06
6.57119e-09 1.37953e-05 -1.06729e-06
7.88853e-09 1.22373e-05 -9.23149e-07
-1.16448e-08 1.20598e-05 -9.68818e-07
-7.42737e-09 1.3882e-05 -1.08718e-06
-1.90147e-09 1.48745e-05 -1.128e-06
1.53522e-05 -7.61091e-08 1.50211e-07
1.5312e-05 -6.08543e-08 1.03489e-07
1.5131e-05 -4.50775e-08 5.18881e-08
1.47732e-05 -5.03825e-08 -1.28666e-07
1.51918e-05 -4.87334e-08 -3.94226e-08
1.01258e-08 1.47772e-05 -1.10527e-06
1.16185e-08 1.36972e-05 -9.96891e-07
1.11436e-09 1.40852e-05 -1.03867e-06
6.46238e-09 1.49526e-05 -1.06397e-06
1.40804e-05 -5.78885e-08 -2.38792e-07
1.17416e-05 -6.43324e-08 1.27281e-07
1.30737e-08 1.20939e-05 -8.66799e-07
-4.7324e-09 1.03683e-05 -6.92188e-07
-2.67575e-09 1.23956e-05 -9.52884e-07
1.15089e-05 -5.73545e-08 9.26617e-08
1.12025e-05 -4.40718e-08 4.73591e-08
1.17631e-05 -4.84856e-08 -9.50497e-08
1.18454e-05 -4.60555e-08 -2.43734e-08
1.6809e-08 1.46906e-05 -9.65782e-07
5.77817e-09 1.05206e-05 -8.33067e-07
6.80381e-09 8.86909e-06 -6.97794e-07
7.25854e-09 7.44441e-06 -5.83702e-07
3.79253e-09 6.28564e-06 -4.97687e-07
3.38766e-09 5.34543e-06 -4.18721e-07
2.99178e-09 4.56225e-06 -3.54653e-07
1.4878e-05 -7.14705e-08 -2.86664e-08
1.46022e-05 -5.02064e-08 -3.55906e-08
1.43546e-05 -2.96446e-08 -3.9633e-08
1.416e-05 -9.71871e-09 -4.08423e-08
1.4033e-05 -4.08269e-08 3.1064e-08
1.39521e-05 -2.14451e-08 3.78364e-08
1.39134e-05 -2.3223e-09 4.49296e-08
8.49585e-09 1.03738e-05 -7.80931e-07
8.88856e-09 8.73887e-06 -6.52411e-07
8.85325e-09 7.34256e-06 -5.46143e-07
3.51162e-09 4.54042e-06 -3.34555e-07
4.42024e-09 6.21393e-06 -4.66943e-07
3.73214e-09 5.30201e-06 -3.94338e-07
1.00456e-05 -3.40294e-08 1.7602e-08
8.86273e-10 3.22818e-06 -2.49025e-07
4.45219e-10 2.59415e-06 -2.00008e-07
1.36496e-09 3.87583e-06 -3.00589e-07
2.19261e-10 1.31265e-06 -1.00226e-07
3.86004e-11 6.58897e-07 -5.00372e-08
5.02744e-10 1.95798e-06 -1.51086e-07
1.39237e-05 -3.21638e-08 -3.3294e-08
1.39336e-05 -1.32907e-08 -2.55284e-08
1.39486e-05 5.55043e-09 -1.77315e-08
1.39709e-05 -6.20058e-09 4.57165e-08
1.39756e-05 9.68251e-09 5.11353e-08
1.39618e-05 -1.97853e-08 3.97485e-08
1.72309e-09 3.86825e-06 -2.85059e-07
1.05359e-09 3.22927e-06 -2.36743e-07
5.28719e-10 2.59839e-06 -1.90424e-07
5.76562e-10 1.96236e-06 -1.43895e-07
2.17834e-10 1.31631e-06 -9.55844e-08
2.33111e-11 6.60884e-07 -4.77824e-08
9.98523e-06 -2.60877e-08 -2.95751e-08
1.00026e-05 -8.7055e-09 -1.87282e-08
1.00213e-05 8.70558e-09 -7.83232e-09
1.00358e-05 -2.15091e-08 2.31094e-08
1.00457e-05 -6.06064e-09 3.23582e-08
1.08687e-05 -5.51022e-08 -1.70026e-08
1.05684e-05 -3.89343e-08 -2.27477e-08
1.0324e-05 -2.36226e-08 -2.63424e-08
1.01478e-05 -8.97485e-09 -2.79609e-08
9.98669e-06 -1.9793e-08 1.8886e-08
9.96796e-06 -4.96007e-09 2.43747e-08
1.0049e-05 4.2011e-09 3.32334e-08
6.80574e-09 6.17499e-06 -3.97776e-07
1.52671e-09 3.24435e-06 -2.05664e-07
8.00054e-10 2.61307e-06 -1.65594e-07
7.4797e-10 1.97422e-06 -1.25206e-07
2.73182e-10 1.32407e-06 -8.30673e-08
5.85309e-16 1.10897e-11 -8.40677e-13
3.72426e-11 -6.58917e-07 5.00384e-08
2.16823e-10 -1.31278e-06 1.00237e-07
4.99929e-10 -1.95826e-06 1.51111e-07
4.4404e-10 -2.59455e-06 2.00043e-07
8.85828e-10 -3.22865e-06 2.49067e-07
1.36518e-09 -3.87631e-06 3.00632e-07
1.3976e-05 -9.803e-09 -5.10458e-08
1.3972e-05 6.0798e-09 -4.56318e-08
1.39635e-05 1.9669e-08 -3.9666e-08
1.39508e-05 -5.66316e-09 1.78265e-08
1.3936e-05 1.31977e-08 2.56461e-08
1.39263e-05 3.20908e-08 3.34337e-08
1.90969e-14 1.95432e-10 -1.41467e-11
2.19157e-11 -6.6055e-07 4.77563e-08
2.15206e-10 -1.31613e-06 9.55662e-08
5.72991e-10 -1.96241e-06 1.43888e-07
5.27047e-10 -2.59859e-06 1.90412e-07
1.05227e-09 -3.22962e-06 2.36707e-07
1.72225e-09 -3.86868e-06 2.8498e-07
1.00465e-05 5.90476e-09 -3.2255e-08
1.00372e-05 2.13475e-08 -2.29985e-08
1.0023e-05 -8.89052e-09 7.90642e-09
1.00046e-05 8.53162e-09 1.88396e-08
9.98732e-06 2.59253e-08 2.97249e-08
2.99631e-09 -4.56264e-06 3.54675e-07
3.39272e-09 -5.34571e-06 4.18735e-07
3.79792e-09 -6.28578e-06 4.97692e-07
7.2629e-09 -7.44438e-06 5.83718e-07
6.80656e-09 -8.86894e-06 6.97801e-07
5.77886e-09 -1.05203e-05 8.33066e-07
1.3916e-05 2.24368e-09 -4.5116e-08
1.39546e-05 2.1352e-08 -3.80938e-08
1.40355e-05 4.07151e-08 -3.14093e-08
1.41623e-05 9.7213e-09 4.08265e-08
1.43568e-05 2.96509e-08 3.96183e-08
1.46042e-05 5.02148e-08 3.55773e-08
1.48799e-05 7.14798e-08 2.86554e-08
3.51595e-09 -4.54079e-06 3.34695e-07
3.73643e-09 -5.30224e-06 3.94518e-07
4.42462e-09 -6.21396e-06 4.67173e-07
8.85631e-09 -7.34262e-06 5.46149e-07
8.88988e-09 -8.73879e-06 6.52413e-07
8.49499e-09 -1.03736e-05 7.8093e-07
1.00475e-05 3.39247e-08 -1.80022e-08
1.00493e-05 -4.35012e-09 -3.31306e-08
9.97006e-06 4.90712e-09 -2.46069e-08
9.98872e-06 1.97107e-08 -1.92029e-08
1.01495e-05 8.97138e-09 2.79549e-08
1.03256e-05 2.36199e-08 2.63375e-08
1.05698e-05 3.89308e-08 2.27442e-08
1.08699e-05 5.5097e-08 1.70014e-08
2.70815e-10 -1.32365e-06 8.30363e-08
7.44713e-10 -1.97407e-06 1.25188e-07
7.98215e-10 -2.61315e-06 1.65574e-07
1.5251e-09 -3.24464e-06 2.05625e-07
6.80686e-09 -6.17514e-06 3.97971e-07
7.88574e-09 -1.22369e-05 9.23118e-07
6.56632e-09 -1.37949e-05 1.06726e-06
3.99462e-09 -1.48065e-05 1.1772e-06
1.51327e-05 4.51072e-08 -5.18767e-08
1.53136e-05 6.08759e-08 -1.03484e-07
1.53535e-05 7.61219e-08 -1.50212e-07
-1.90984e-09 -1.48743e-05 1.12773e-06
-7.43455e-09 -1.38817e-05 1.08697e-06
-1.16502e-08 -1.20595e-05 9.68657e-07
1.16104e-08 -1.36969e-05 9.96859e-07
1.01162e-08 -1.47769e-05 1.10524e-06
1.51929e-05 4.84874e-08 3.86969e-08
1.47742e-05 5.02007e-08 1.28115e-07
1.17422e-05 6.43361e-08 -1.27277e-07
1.30675e-08 -1.20937e-05 8.66771e-07
6.45514e-09 -1.49526e-05 1.0635e-06
1.10793e-09 -1.40851e-05 1.03829e-06
1.40812e-05 5.77914e-08 2.38444e-07
1.12035e-05 4.40906e-08 -4.73485e-08
1.15097e-05 5.73661e-08 -9.26553e-08
-2.68105e-09 -1.23954e-05 9.52583e-07
-4.73906e-09 -1.0368e-05 6.92439e-07
1.67975e-08 -1.46904e-05 9.65758e-07
1.18459e-05 4.5932e-08 2.39155e-08
1.17634e-05 4.84014e-08 9.46982e-08
-3.01921e-08 2.19632e-05 -1.07972e-06
1.5357e-05 -3.61166e-08 -4.51625e-07
-5.4888e-09 9.62563e-06 -6.74166e-07
1.73512e-05 -2.52447e-08 -5.73211e-07
-5.8851e-09 8.59475e-06 -6.08373e-07
-7.16008e-09 8.65233e-06 -5.91428e-07
1.87599e-05 -1.8929e-08 -7.07346e-07
-5.37192e-09 7.25967e-06 -5.00483e-07
-7.18099e-09 7.26336e-06 -4.83869e-07
1.91694e-05 -2.65145e-08 -8.22599e-07
1.59299e-05 -6.0932e-09 -9.18017e-07
-6.30964e-09 5.6403e-06 -3.99404e-07
-7.43752e-09 5.65758e-06 -3.73383e-07
1.81912e-05 -3.41504e-08 -8.20519e-07
1.46853e-05 -7.80247e-09 -9.36556e-07
-6.3245e-09 3.79974e-06 -2.74247e-07
-7.23983e-09 3.91448e-06 -2.59576e-07
1.51528e-05 -4.14123e-08 -7.5793e-07
1.16954e-05 -1.45892e-08 -8.09187e-07
-4.13064e-09 1.87516e-06 -1.31416e-07
-5.09387e-09 2.19435e-06 -1.40338e-07
-1.68468e-08 7.64681e-06 -4.27657e-07
9.63849e-06 -2.20275e-08 -5.07566e-07
6.64589e-06 -8.21926e-09 -4.85062e-07
4.47822e-06 9.6667e-10 -4.14033e-07
-1.59632e-08 9.08012e-06 -5.31671e-07
8.81526e-06 3.09835e-09 -7.73395e-07
-1.61804e-08 1.06409e-05 -6.59261e-07
1.59556e-05 -1.66622e-08 -8.31916e-07
-1.62667e-08 1.21672e-05 -7.59944e-07
1.15304e-05 -1.12827e-09 -9.29396e-07
-6.06188e-09 9.78102e-06 -6.57085e-07
1.5077e-05 -2.89741e-08 -7.25837e-07
1.28448e-05 -8.86875e-09 -9.54714e-07
-2.13155e-08 2.1321e-05 -9.11242e-07
-1.63927e-06 6.55478e-09 1.78801e-07
-1.38601e-08 2.13519e-05 -7.62982e-07
-7.77725e-06 2.75899e-09 8.65586e-07
-3.21424e-09 2.23956e-05 -5.70541e-07
-1.5302e-05 -2.05285e-08 1.74562e-06
1.5985e-08 2.47687e-05 -2.66901e-07
-2.41241e-05 -6.81703e-08 2.79469e-06
5.03688e-08 2.87807e-05 2.2605e-07
-3.40592e-05 -1.21193e-07 3.95722e-06
1.07104e-07 3.47328e-05 1.0271e-06
-1.0593e-10 4.5694e-08 -2.94189e-09
-1.69706e-09 7.02663e-07 -4.11996e-08
-1.48395e-08 6.56574e-06 -3.34247e-07
1.2215e-06 -1.49191e-09 -6.6912e-08
-7.76986e-07 5.47962e-11 5.88395e-08
-1.69585e-06 -6.29335e-10 1.63817e-07
3.0669e-09 -1.44007e-06 7.97713e-08
6.42686e-10 -2.98445e-07 1.47673e-08
-1.18359e-08 6.10613e-06 -2.58629e-07
-1.04492e-05 -5.31538e-09 5.85508e-07
-1.08122e-05 -1.37921e-08 8.42449e-07
-9.85311e-06 -1.18775e-08 9.83569e-07
3.7683e-09 -2.27133e-06 9.30536e-08
7.9107e-10 -4.89754e-07 1.76019e-08
-8.87482e-09 6.58361e-06 -1.93693e-07
-2.55689e-05 -4.48908e-08 1.46874e-06
-2.35629e-05 -5.29196e-08 1.88704e-06
-2.00296e-05 -4.6222e-08 2.04085e-06
-4.2319e-09 8.33728e-06 -1.11644e-07
-2.73469e-10 4.95431e-07 -8.41727e-09
1.62264e-09 -2.07495e-06 4.62293e-08
-3.89993e-05 -1.81396e-07 3.08809e-06
-3.21516e-05 -1.26552e-07 3.28549e-06
-4.41726e-05 -1.5514e-07 2.55866e-06
8.28346e-09 1.17437e-05 9.5563e-08
-5.48168e-11 -4.37702e-07 1.18979e-10
1.47249e-09 3.05315e-06 1.25914e-08
-4.60167e-05 -2.84568e-07 4.57297e-06
-6.60776e-05 -2.62529e-07 3.97658e-06
-5.69081e-05 -3.06333e-07 4.59354e-06
3.54243e-08 1.71464e-05 5.45101e-07
4.20303e-09 3.07624e-06 8.36666e-08
1.38927e-08 7.5879e-06 2.27722e-07
-6.12658e-05 -4.10825e-07 6.19071e-06
-9.09132e-05 -3.96591e-07 5.61123e-06
-7.69161e-05 -4.45697e-07 6.33548e-06
1.6837e-05 -2.91022e-08 -2.93763e-07
1.80266e-05 -3.35401e-08 -1.642e-07
1.88937e-05 -3.79085e-08 -6.34828e-08
-5.29521e-09 1.46269e-05 -1.13323e-06
-1.03248e-08 1.148e-05 -9.37218e-07
-8.30249e-09 1.34628e-05 -1.08306e-06
2.26652e-05 -8.04679e-09 -1.41458e-07
1.94381e-05 4.59321e-09 -3.65813e-07
2.12282e-05 -7.63786e-09 -2.2443e-07
-7.22217e-09 1.41224e-05 -1.10481e-06
-8.18969e-09 1.06098e-05 -8.57388e-07
-8.47644e-09 1.27685e-05 -1.032e-06
2.60185e-05 -4.18372e-09 -2.05216e-07
2.39224e-05 2.45386e-08 -3.19145e-07
2.14747e-05 2.71997e-08 -4.42547e-07
-1.09255e-08 1.3294e-05 -1.04077e-06
-5.97871e-09 9.40729e-06 -7.23173e-07
-8.67527e-09 1.17455e-05 -9.20755e-07
2.55551e-05 1.46545e-08 -3.58518e-07
2.83379e-05 -1.67546e-08 -2.22178e-07
2.24576e-05 4.28114e-08 -5.19824e-07
-1.59214e-08 1.21314e-05 -9.49777e-07
-1.07676e-08 1.03679e-05 -7.98903e-07
-5.79066e-09 7.86888e-06 -5.88323e-07
2.56032e-05 -2.97874e-09 -3.76782e-07
2.9047e-05 -3.41728e-08 -2.11193e-07
2.19278e-05 2.17432e-08 -5.52325e-07
-1.20906e-08 8.64394e-06 -6.5796e-07
-1.96621e-08 1.06032e-05 -8.38424e-07
-5.53202e-09 6.02613e-06 -4.37558e-07
2.31035e-05 -1.32838e-08 -3.72993e-07
2.70507e-05 -3.92239e-08 -2.0029e-07
1.90636e-05 3.30598e-09 -5.36278e-07
-1.18791e-08 6.66732e-06 -4.82261e-07
-2.12089e-08 8.7859e-06 -6.66031e-07
-4.50353e-09 4.00077e-06 -2.73788e-07
1.94429e-05 -6.30242e-08 2.05899e-07
1.97027e-05 -5.32685e-08 1.36967e-07
1.97463e-05 -4.25127e-08 5.90861e-08
1.96628e-05 -6.459e-08 2.44626e-08
-1.86037e-09 1.47129e-05 -1.2175e-06
1.18532e-09 1.38024e-05 -1.11567e-06
3.22766e-09 1.23072e-05 -9.71082e-07
2.3756e-05 -3.59967e-08 3.01447e-07
2.44421e-05 -3.91276e-08 2.00299e-07
2.48308e-05 -4.13928e-08 8.62853e-08
2.50223e-05 -3.69908e-08 1.05985e-07
-9.26262e-09 1.44195e-05 -1.21192e-06
-5.31155e-09 1.365e-05 -1.12611e-06
-2.02481e-09 1.22542e-05 -9.88464e-07
2.77722e-05 -2.75087e-08 4.10014e-07
2.9001e-05 -4.24343e-08 2.91093e-07
2.9852e-05 -5.70116e-08 1.54046e-07
-1.64673e-08 1.38046e-05 -1.15816e-06
-1.22955e-08 1.32227e-05 -1.09658e-06
-8.22625e-09 1.1975e-05 -9.75455e-07
3.08183e-05 -4.33554e-08 4.89374e-07
3.26682e-05 -7.05706e-08 3.90449e-07
3.40697e-05 -9.83348e-08 2.71086e-07
-1.38814e-08 1.14579e-05 -9.14903e-07
-2.07781e-08 1.28833e-05 -1.03955e-06
-1.74161e-08 1.25193e-05 -1.01027e-06
3.2262e-05 -8.66662e-08 5.54123e-07
3.47728e-05 -1.27739e-07 4.81271e-07
3.67794e-05 -1.7055e-07 3.89685e-07
-1.81062e-08 1.06443e-05 -8.80077e-07
-2.34944e-08 1.15914e-05 -9.46384e-07
-2.13399e-08 1.14778e-05 -9.48727e-07
3.0876e-05 -1.34584e-07 5.07385e-07
3.39972e-05 -1.73739e-07 4.93162e-07
3.65949e-05 -2.13898e-07 4.63349e-07
-2.2945e-08 9.98358e-06 -8.00633e-07
-2.24004e-08 1.01301e-05 -8.28229e-07
-2.0191e-08 9.54391e-06 -7.88106e-07
3.51365e-05 -7.98259e-08 3.35824e-07
1.74233e-05 1.37008e-09 -3.0716e-07
2.16129e-05 -1.47948e-08 -1.67933e-07
1.33392e-05 6.64827e-09 -4.13378e-07
-7.25542e-09 4.56816e-06 -2.97988e-07
-1.62044e-08 6.77491e-06 -4.66465e-07
-1.4253e-09 1.9533e-06 -1.18712e-07
1.1922e-05 8.54938e-09 -7.89377e-08
4.20162e-06 6.19269e-09 -1.3578e-07
7.88055e-06 5.16479e-09 -1.4627e-07
-3.35769e-09 2.54192e-06 -1.39454e-07
-1.08073e-08 4.73355e-06 -2.76542e-07
-3.19432e-11 1.08885e-07 -5.46858e-09
-2.78347e-06 -5.7811e-09 1.89054e-08
-8.83199e-06 -2.53405e-08 2.86533e-07
-6.14433e-06 -1.29742e-08 1.12519e-07
-5.91815e-09 2.89949e-06 -1.28015e-07
-3.19604e-10 -1.23867e-06 4.49652e-08
-8.07688e-10 8.56788e-07 -3.51958e-08
-2.60703e-05 -1.18596e-07 8.41302e-07
-2.5089e-05 -9.42113e-08 4.56082e-07
-2.30805e-05 -6.88241e-08 1.67898e-07
-1.72394e-09 -1.72858e-06 3.09219e-08
5.45831e-11 -1.4488e-07 3.26097e-09
-2.6614e-09 1.58687e-06 -4.16338e-08
-4.91777e-05 -2.05285e-07 9.38502e-07
-4.93215e-05 -1.67945e-07 4.14052e-07
-4.76256e-05 -2.36347e-07 1.56958e-06
-1.83633e-09 -9.46665e-07 -4.85648e-09
-2.26008e-11 -6.02236e-08 -3.93288e-11
-1.31912e-09 1.18027e-06 -3.78744e-09
-7.83834e-05 -3.44898e-07 1.60865e-06
-8.15942e-05 -2.87883e-07 8.14881e-07
-7.33808e-05 -3.85257e-07 2.50402e-06
2.19306e-09 1.56501e-06 4.7318e-08
-5.99139e-10 2.12198e-06 5.69799e-08
4.90412e-09 1.55938e-06 5.28253e-08
-0.000119676 -4.5656e-07 1.42908e-06
-0.00010296 -5.94704e-07 3.82243e-06
-0.000112392 -5.34341e-07 2.59352e-06
2.58087e-05 -1.15772e-07 3.83984e-07
2.94027e-05 -1.47643e-07 4.17237e-07
3.2499e-05 -1.80358e-07 4.39154e-07
-1.68545e-08 8.1344e-06 -6.11114e-07
-1.89994e-08 8.52547e-06 -6.57365e-07
-1.94792e-08 8.19574e-06 -6.42543e-07
1.61143e-05 -5.94088e-08 2.51901e-07
1.99285e-05 -8.03133e-08 3.08632e-07
2.33267e-05 -1.02075e-07 3.57945e-07
-1.08527e-08 6.19167e-06 -4.09285e-07
-1.45492e-08 6.78271e-06 -4.63562e-07
-1.69093e-08 6.68848e-06 -4.68185e-07
8.81457e-07 -1.67041e-09 1.51224e-08
4.5315e-06 -1.0034e-08 7.51514e-08
7.91149e-06 -2.0121e-08 1.26888e-07
-5.33081e-09 4.35936e-06 -2.22253e-07
-9.45752e-09 5.07478e-06 -2.71459e-07
-1.28808e-08 5.16697e-06 -2.86951e-07
-2.06258e-05 3.85331e-09 -3.70951e-07
-1.7667e-05 9.08268e-09 -2.98619e-07
-1.47614e-05 1.26254e-08 -2.32997e-07
-4.85758e-09 3.64404e-06 -1.24617e-07
-8.66724e-09 3.84148e-06 -1.42181e-07
-1.14373e-09 2.91317e-06 -9.04421e-08
-4.88924e-05 -5.35921e-08 -8.68635e-07
-4.72993e-05 -3.16274e-08 -7.5867e-07
-4.54707e-05 -1.02343e-08 -6.43308e-07
1.39872e-09 2.21286e-06 -9.94026e-09
-1.76318e-09 2.81833e-06 -2.35838e-08
-5.59355e-09 3.00664e-06 -3.6284e-08
-8.41521e-05 -1.32996e-07 -1.42492e-06
-8.47408e-05 -9.51321e-08 -1.24881e-06
-8.47395e-05 -5.46486e-08 -1.04336e-06
4.85943e-09 2.68069e-06 7.23593e-08
7.6401e-10 2.99327e-06 6.93277e-08
-3.86606e-09 3.026e-06 5.83289e-08
-0.000126283 -2.10662e-07 -1.71314e-06
-0.000130008 -1.57767e-07 -1.56166e-06
-0.000132732 -9.58341e-08 -1.35996e-06
-4.38688e-05 1.69955e-07 -4.68738e-07
-0.000135009 1.3442e-07 -1.27973e-06
-8.45522e-05 4.48958e-08 -9.93989e-07
-1.21681e-05 5.76563e-08 -1.21369e-07
2.0852e-07 4.28922e-05 2.28119e-06
2.87067e-08 8.90538e-06 5.18695e-07
5.45345e-08 1.44916e-05 8.54811e-07
1.04712e-07 2.4882e-05 1.45257e-06
-0.000118122 -5.44845e-07 7.39611e-06
-9.85156e-05 -5.97888e-07 8.13933e-06
-7.74744e-05 -5.37719e-07 7.83123e-06
3.60586e-07 5.34759e-05 4.18141e-06
1.40294e-07 2.41259e-05 2.16776e-06
9.21818e-08 1.74718e-05 1.59994e-06
2.17442e-07 3.52475e-05 3.04028e-06
-0.000121052 -7.26949e-07 9.82454e-06
-0.000146971 -6.91173e-07 9.14151e-06
-9.40871e-05 -6.44963e-07 9.27023e-06
2.93906e-07 3.6797e-05 4.52095e-06
2.18119e-07 2.91555e-05 3.7241e-06
3.98125e-07 4.8469e-05 5.60347e-06
-0.000143789 -8.1819e-07 1.12168e-05
-0.000176623 -8.08959e-07 1.06551e-05
5.36182e-07 5.2749e-05 8.28233e-06
4.3103e-07 4.42833e-05 7.34018e-06
-0.000204113 -8.63129e-07 1.14744e-05
7.50391e-07 6.29535e-05 1.2891e-05
3.01027e-08 6.25851e-06 4.15179e-07
1.53427e-08 5.21631e-06 3.34076e-07
5.44008e-09 4.89924e-06 3.01631e-07
1.58458e-08 4.79011e-06 3.02195e-07
7.10075e-09 4.62029e-06 2.7622e-07
-9.14692e-10 4.3227e-06 2.4272e-07
-0.000135881 -8.09393e-07 5.22231e-06
-0.000150755 -7.407e-07 3.71317e-06
-0.000163185 -6.34022e-07 2.21695e-06
-0.00017482 -2.46711e-07 -1.53643e-06
-0.000182824 -1.96395e-07 -1.48383e-06
-0.000189387 -1.32635e-07 -1.34299e-06
-0.000195231 2.85158e-07 -1.45396e-06
9.46264e-08 1.36142e-05 1.38842e-06
5.69303e-08 1.13897e-05 1.15579e-06
3.06447e-08 1.00248e-05 1.00585e-06
4.55132e-08 9.05472e-06 9.34324e-07
2.55817e-08 8.20233e-06 8.27642e-07
9.08734e-09 7.37893e-06 7.2329e-07
-0.000192657 -9.45445e-07 4.82445e-06
-0.000211332 -8.17952e-07 3.02517e-06
-0.000171339 -1.02117e-06 6.57023e-06
-0.000229105 -2.72502e-07 -1.09767e-06
-0.000242606 -2.43107e-07 -1.18335e-06
-0.00025422 -1.98893e-07 -1.13884e-06
2.21636e-07 2.40653e-05 3.37296e-06
1.47615e-07 2.05719e-05 2.92109e-06
9.22179e-08 1.80178e-05 2.57146e-06
1.09113e-07 1.60091e-05 2.35072e-06
6.82113e-08 1.42757e-05 2.08603e-06
3.50699e-08 1.27202e-05 1.83863e-06
-0.00020842 -1.20943e-06 7.65611e-06
-0.000237149 -1.13109e-06 5.73456e-06
-0.000263176 -9.86976e-07 3.68412e-06
-0.00028822 -2.91223e-07 -5.57039e-07
-0.00030853 -3.01461e-07 -8.20534e-07
-0.000326537 -2.99062e-07 -9.14935e-07
4.37138e-07 3.80118e-05 6.82971e-06
3.12337e-07 3.32253e-05 6.13002e-06
2.12701e-07 2.93882e-05 5.51707e-06
2.26147e-07 2.61968e-05 5.03844e-06
1.54124e-07 2.33968e-05 4.54359e-06
9.51074e-08 2.09016e-05 4.07445e-06
-0.000243841 -1.30568e-06 8.08502e-06
-0.000280691 -1.22251e-06 6.06229e-06
-0.000314978 -1.0615e-06 3.83609e-06
-0.000348257 -2.28185e-07 -3.2108e-07
-0.000376613 -2.94923e-07 -8.18828e-07
-0.000402329 -3.57808e-07 -1.1156e-06
5.74071e-07 4.96436e-05 1.13072e-05
4.14814e-07 4.45017e-05 1.04257e-05
7.62413e-07 5.5661e-05 1.22016e-05
2.99878e-07 3.60304e-05 8.80888e-06
2.03976e-07 3.24074e-05 8.05136e-06
4.14405e-07 4.00462e-05 9.57793e-06
0.00206755 5.35795e-06 -1.71886e-05
0.00196538 6.5954e-06 -3.38796e-05
0.00231571 1.24207e-06 1.08144e-05
0.00224555 5.72851e-07 8.04835e-06
0.00216684 -1.07221e-07 3.93682e-06
-0.000343652 9.41937e-07 -1.17752e-06
-0.000265202 6.93637e-07 -1.60322e-06
-0.000426944 1.45733e-06 -7.25101e-07
1.94996e-05 -4.84366e-08 -2.02158e-08
1.93149e-05 -2.94673e-08 -3.77898e-08
1.91575e-05 -1.08173e-08 -5.11228e-08
4.97539e-09 1.06335e-05 -8.73144e-07
5.76691e-09 8.9808e-06 -7.34325e-07
6.08824e-09 7.53699e-06 -6.14125e-07
3.04578e-05 -3.48423e-08 1.89088e-07
2.5095e-05 -3.4748e-08 2.62136e-08
2.50606e-05 -2.59839e-08 -1.08978e-08
2.50138e-05 -1.72755e-08 -4.26905e-08
3.18088e-09 1.06591e-05 -8.79194e-07
3.65017e-09 9.02867e-06 -7.45389e-07
3.82672e-09 7.58258e-06 -6.25384e-07
3.08497e-05 -3.72884e-08 7.99637e-08
3.10595e-05 -3.68584e-08 3.10691e-08
3.12039e-05 -3.64832e-08 -1.23085e-08
-5.01501e-10 1.04673e-05 -8.98052e-07
3.70928e-12 8.90444e-06 -7.67114e-07
3.48423e-10 7.49265e-06 -6.46527e-07
3.69412e-05 -6.63734e-08 8.82545e-08
3.59853e-05 -7.23092e-08 1.60341e-07
3.65225e-05 -7.09071e-08 1.10253e-07
-1.79265e-09 1.00928e-05 -8.33528e-07
-1.69107e-09 8.62785e-06 -7.19582e-07
-1.53532e-09 7.27631e-06 -6.10111e-07
3.84921e-05 -9.45007e-08 3.51647e-07
4.13673e-05 -1.26166e-07 1.8441e-07
3.97229e-05 -1.04669e-07 2.52991e-07
4.06404e-05 -1.18006e-07 2.04396e-07
3.88695e-05 -1.27453e-07 3.36431e-07
-4.15585e-09 8.14498e-06 -6.55665e-07
-3.98179e-09 6.89193e-06 -5.6031e-07
-3.32877e-09 9.46883e-06 -7.54243e-07
4.19726e-05 -1.5786e-07 2.70207e-07
4.30482e-05 -1.56597e-07 2.7702e-07
4.06186e-05 -1.56604e-07 2.71663e-07
-6.34083e-09 7.433e-06 -5.86144e-07
-6.10352e-09 6.31261e-06 -5.01709e-07
-5.61932e-09 8.58023e-06 -6.72606e-07
1.90628e-05 -4.20443e-08 5.63841e-08
1.89988e-05 -2.77343e-08 5.43899e-08
1.89743e-05 -1.36328e-08 5.24401e-08
4.17785e-09 6.3558e-06 -5.19824e-07
3.55944e-09 5.38778e-06 -4.35955e-07
3.00816e-09 4.58152e-06 -3.66864e-07
2.50262e-05 -3.8546e-08 8.78361e-08
2.50321e-05 -4.20433e-08 7.18164e-08
2.50651e-05 -4.57647e-08 5.50325e-08
3.70258e-09 6.39187e-06 -5.25276e-07
2.93601e-09 5.40279e-06 -4.40135e-07
2.29971e-09 4.57762e-06 -3.68647e-07
3.13994e-05 -4.21343e-08 1.17527e-07