# vtk DataFile Version 3.0
vtk output
ASCII
DATASET POLYDATA
POINTS 20907 float
0.193352 0.924836 -0.0524336
0.172078 0.925055 -0.0520018
0.182842 0.919952 -0.0519071
0.193474 0.914844 -0.0518676
0.204066 0.919735 -0.0520833
0.214693 0.924634 -0.0521447
0.171879 0.935047 -0.052633
0.170982 0.985017 -0.055686
0.160034 0.99012 -0.0555722
0.171165 0.975025 -0.055052
0.160237 0.980125 -0.055023
0.149384 0.985232 -0.0545362
0.171356 0.965033 -0.054438
0.160448 0.970136 -0.0543903
0.171527 0.955035 -0.0538687
0.160658 0.960138 -0.0537653
0.149625 0.975243 -0.0539192
0.149859 0.965247 -0.0533363
0.138735 0.990338 -0.0534514
0.171698 0.945044 -0.0532617
0.160855 0.950148 -0.0531719
0.138969 0.980342 -0.0529118
0.150114 0.955253 -0.0526664
0.161058 0.940155 -0.0525603
0.139151 0.970352 -0.0524641
0.161235 0.930158 -0.0519756
0.150319 0.945262 -0.0520771
0.139368 0.960355 -0.0519186
0.182694 0.929945 -0.0525014
0.203938 0.929727 -0.0527235
0.19319 0.934831 -0.0530769
0.214557 0.934623 -0.0528237
0.203813 0.93972 -0.053308
0.193031 0.944823 -0.0536846
0.181719 0.989902 -0.0561904
0.181899 0.97991 -0.0555718
0.182047 0.969918 -0.0549582
0.203181 0.98968 -0.056396
0.224543 0.989476 -0.0562017
0.203311 0.979685 -0.0558069
0.192486 0.984795 -0.0561014
0.213973 0.98458 -0.0560475
0.235123 0.984392 -0.0557509
0.192614 0.974803 -0.0555162
0.214077 0.974589 -0.0554325
0.224655 0.979487 -0.0555519
0.192754 0.964807 -0.0549138
0.20344 0.969697 -0.0551853
0.224755 0.969497 -0.0549038
0.235217 0.974407 -0.0551084
0.203568 0.959702 -0.0545705
0.214214 0.964599 -0.0547721
0.235317 0.964415 -0.054469
0.192896 0.954815 -0.0543173
0.214322 0.954603 -0.0541403
0.182232 0.959924 -0.0543248
0.224868 0.959508 -0.0542393
0.182373 0.949932 -0.0537281
0.203697 0.94971 -0.0539417
0.224974 0.949515 -0.0535854
0.235429 0.954425 -0.0538101
0.214434 0.944616 -0.0534825
0.18252 0.939941 -0.0531364
0.225081 0.939529 -0.052931
0.235534 0.944438 -0.0531434
0.235644 0.934446 -0.0524834
0.225203 0.929539 -0.0522766
0.170774 0.995009 -0.0563135
0.149181 0.995227 -0.0551298
0.15983 1.00011 -0.0562077
0.138595 1.00033 -0.0538999
0.170561 1.005 -0.0569774
0.149002 1.00521 -0.055625
0.159596 1.0101 -0.0568775
0.138317 1.01032 -0.0544859
0.170405 1.01499 -0.0575781
0.148795 1.01521 -0.0562341
0.159392 1.0201 -0.0575045
0.137991 1.02032 -0.0551752
0.170194 1.02498 -0.0582236
0.148542 1.0252 -0.0568054
0.15919 1.03008 -0.0581197
0.137719 1.03031 -0.055788
0.17003 1.03497 -0.0587902
0.148332 1.03519 -0.0573672
0.158955 1.04008 -0.0587081
0.13742 1.04031 -0.0563979
0.169787 1.04496 -0.0594459
0.148105 1.04518 -0.0578834
0.158696 1.05007 -0.0593246
0.137155 1.0503 -0.0570081
0.16957 1.05496 -0.0600524
0.14785 1.05518 -0.0584825
0.126471 1.05542 -0.0556011
0.12679 1.04543 -0.0549831
0.127085 1.03543 -0.0543612
0.12741 1.02543 -0.053696
0.127788 1.01544 -0.0529918
0.116682 1.05054 -0.0525775
0.128096 1.00544 -0.0523468
0.117027 1.04054 -0.0519637
0.128231 0.99544 -0.0520269
0.192328 0.994785 -0.0567106
0.213853 0.994569 -0.0566772
0.235025 0.994384 -0.0563925
0.18155 0.999895 -0.0567884
0.203049 0.999671 -0.0569928
0.224453 0.99947 -0.0568157
0.192149 1.00477 -0.0573982
0.213752 1.00456 -0.0572596
0.234945 1.00437 -0.0570112
0.181351 1.00989 -0.057454
0.202914 1.00966 -0.0576066
0.224345 1.00946 -0.0574529
0.191995 1.01477 -0.0580005
0.213644 1.01455 -0.0578403
0.234858 1.01436 -0.0576334
0.181191 1.01988 -0.0580523
0.18102 1.02986 -0.0586835
0.180851 1.03985 -0.0593004
0.180647 1.04984 -0.0599151
0.224258 1.01945 -0.0580414
0.202788 1.01966 -0.0581702
0.191832 1.02475 -0.0586123
0.213521 1.02454 -0.0584321
0.234763 1.02435 -0.0582689
0.202637 1.02964 -0.0588032
0.22416 1.02943 -0.0586365
0.191705 1.03475 -0.0591636
0.213396 1.03453 -0.0590219
0.234673 1.03434 -0.0588895
0.202479 1.03963 -0.0594189
0.224039 1.03942 -0.0592454
0.191518 1.04474 -0.0597948
0.213247 1.04452 -0.0596177
0.234561 1.04433 -0.059508
0.202308 1.04962 -0.0600581
0.223925 1.04942 -0.0597949
0.191353 1.05473 -0.0604006
0.213112 1.05451 -0.0601825
0.234447 1.05431 -0.0601217
0.338219 0.923831 -0.05279
0.35852 0.923756 -0.0528176
0.297535 0.924046 -0.0523374
0.34839 0.918804 -0.05247
0.368653 0.918737 -0.0525685
0.31792 0.923935 -0.0525135
0.328077 0.918892 -0.0523914
0.256456 0.924301 -0.0520371
0.27709 0.924168 -0.0521655
0.287334 0.919113 -0.0520309
0.307765 0.919002 -0.0520743
0.368685 0.908755 -0.0519288
0.317957 0.913952 -0.0519101
0.338248 0.913854 -0.0521791
0.358544 0.91378 -0.0522003
0.378779 0.923695 -0.0529586
0.419224 0.923605 -0.0530347
0.399021 0.923646 -0.052955
0.439447 0.92358 -0.0529152
0.459634 0.923554 -0.0530608
0.479801 0.923549 -0.0529063
0.419239 0.913627 -0.0523942
0.388964 0.918683 -0.0526228
0.409113 0.918638 -0.0526864
0.429332 0.918607 -0.0526305
0.459638 0.913576 -0.0524186
0.449552 0.918575 -0.0526977
0.46972 0.918562 -0.0526482
0.489872 0.918558 -0.0525929
0.388997 0.908701 -0.051986
0.40914 0.908657 -0.0520376
0.42935 0.908627 -0.0519813
0.378836 0.91372 -0.0523536
0.399057 0.913671 -0.0523271
0.449558 0.908598 -0.0520431
0.469722 0.908585 -0.0519917
0.48987 0.908581 -0.0519355
0.43946 0.913606 -0.0522767
0.479792 0.913575 -0.052264
0.266755 0.929225 -0.0523588
0.287275 0.929096 -0.0526592
0.276994 0.93415 -0.05279
0.297464 0.934032 -0.0529765
0.287186 0.939078 -0.0532861
0.297379 0.944013 -0.0536122
0.245467 0.989287 -0.0560677
0.245556 0.979296 -0.0554188
0.245638 0.969309 -0.0547787
0.297249 0.963979 -0.0548665
0.297122 0.983946 -0.0561246
0.26624 0.989121 -0.0561537
0.286851 0.988996 -0.056431
0.286912 0.979008 -0.0557803
0.255875 0.984201 -0.0557406
0.276633 0.98407 -0.0559039
0.276693 0.97408 -0.0552892
0.29719 0.973962 -0.0554976
0.266339 0.979141 -0.0555195
0.266408 0.969157 -0.0548915
0.286983 0.96903 -0.0551655
0.255969 0.974217 -0.0551715
0.287046 0.959042 -0.0545405
0.276772 0.964102 -0.0546649
0.256051 0.964234 -0.0545439
0.24573 0.959317 -0.0541336
0.276834 0.954115 -0.0540431
0.297318 0.953997 -0.0542422
0.266498 0.959177 -0.0542615
0.266574 0.949189 -0.0536274
0.287122 0.94906 -0.0539273
0.256154 0.954253 -0.0539289
0.256235 0.944267 -0.0533024
0.276918 0.944135 -0.0534215
0.245863 0.949335 -0.0535167
0.245954 0.939351 -0.052893
0.266666 0.939212 -0.0529923
0.256354 0.934286 -0.0526846
0.24609 0.929368 -0.0522859
0.328036 0.928873 -0.0530294
0.348353 0.928785 -0.0531139
0.36862 0.928717 -0.0532125
0.307716 0.928983 -0.0526972
0.338162 0.933815 -0.0534595
0.358472 0.93374 -0.0534828
0.317851 0.933919 -0.0531779
0.327975 0.938854 -0.0536694
0.348304 0.938766 -0.0537557
0.368582 0.938698 -0.0538534
0.307638 0.938965 -0.0533284
0.307334 0.988885 -0.0564733
0.307385 0.978897 -0.0558214
0.307454 0.968919 -0.0552088
0.307509 0.95893 -0.054583
0.338106 0.943795 -0.0541152
0.358426 0.943719 -0.0541365
0.317779 0.943898 -0.0538301
0.307576 0.948946 -0.0539852
0.327924 0.948834 -0.0543314
0.348261 0.948745 -0.054416
0.368549 0.948677 -0.0544945
0.338069 0.953777 -0.0547597
0.358395 0.9537 -0.0547844
0.317674 0.963863 -0.0551014
0.348221 0.958727 -0.0550483
0.368514 0.958658 -0.0551309
0.338033 0.963764 -0.0553818
0.358361 0.963685 -0.0554246
0.327834 0.968802 -0.0555951
0.348185 0.968712 -0.0556817
0.368483 0.968643 -0.0557682
0.337985 0.973741 -0.0560293
0.358323 0.973661 -0.0560705
0.348152 0.978689 -0.0563219
0.368456 0.97862 -0.0564103
0.327746 0.988763 -0.056889
0.348118 0.988673 -0.0569794
0.368428 0.988603 -0.0570711
0.317573 0.983826 -0.0563764
0.337945 0.983726 -0.0566676
0.358286 0.983647 -0.0567103
0.327793 0.978783 -0.0562386
0.317624 0.973844 -0.0557572
0.327878 0.95882 -0.0549785
0.317731 0.95388 -0.0544779
0.276554 0.994052 -0.0565705
0.297064 0.993934 -0.0567833
0.255787 0.994189 -0.0563885
0.24537 0.999276 -0.056706
0.286777 0.998981 -0.0570639
0.266159 0.999111 -0.0567903
0.296984 1.00391 -0.0574693
0.255667 1.00417 -0.0570409
0.27648 1.00404 -0.0572293
0.245275 1.00926 -0.0573576
0.266051 1.00909 -0.0574361
0.286706 1.00896 -0.057705
0.245198 1.01925 -0.0579841
0.245129 1.02924 -0.0585923
0.24504 1.03923 -0.0592171
0.244945 1.04922 -0.0598339
0.276384 1.01402 -0.0578564
0.296918 1.0139 -0.0580782
0.255559 1.01416 -0.0576653
0.286626 1.01895 -0.0583287
0.265966 1.01908 -0.05806
0.255494 1.02414 -0.0582885
0.276314 1.024 -0.0584972
0.296866 1.02389 -0.0586869
0.286567 1.02893 -0.058946
0.265892 1.02906 -0.0586538
0.255415 1.03413 -0.0589144
0.296778 1.03387 -0.059321
0.276232 1.03399 -0.0591314
0.286456 1.03891 -0.0595883
0.265761 1.03904 -0.0592712
0.255337 1.04412 -0.0595512
0.276108 1.04397 -0.0597586
0.296699 1.04386 -0.0599478
0.286368 1.0489 -0.0602381
0.265654 1.04903 -0.0598837
0.255258 1.0541 -0.0601894
0.296605 1.05384 -0.0605908
0.276018 1.05396 -0.0603861
0.3379 0.993708 -0.057317
0.358255 0.993628 -0.0573587
0.317526 0.993814 -0.0570116
0.30727 0.998871 -0.0571094
0.368401 0.998581 -0.0577172
0.327695 0.998747 -0.0575264
0.348087 0.998657 -0.0576081
0.31745 1.00379 -0.0576781
0.337855 1.00369 -0.0579494
0.358221 1.00361 -0.057997
0.307203 1.00885 -0.05778
0.307141 1.01884 -0.0584062
0.307095 1.02882 -0.0590241
0.307011 1.0388 -0.0596716
0.306937 1.0488 -0.0603157
0.32762 1.00873 -0.0581744
0.348035 1.00864 -0.0582599
0.368369 1.00857 -0.0583616
0.317402 1.01378 -0.0583005
0.33781 1.01367 -0.0585899
0.358186 1.01359 -0.0586386
0.368338 1.01855 -0.059016
0.327577 1.01872 -0.058807
0.348003 1.01863 -0.0588911
0.317354 1.02377 -0.0589233
0.337769 1.02366 -0.0592084
0.358152 1.02358 -0.0592665
0.327518 1.02869 -0.0594427
0.347965 1.0286 -0.0595324
0.368315 1.02853 -0.0596598
0.317285 1.03375 -0.059564
0.358114 1.03356 -0.0599239
0.337721 1.03364 -0.0598405
0.368282 1.03851 -0.0603289
0.327459 1.03868 -0.0600774
0.347917 1.03859 -0.0601743
0.317228 1.04374 -0.0601992
0.33766 1.04363 -0.0604911
0.358075 1.04354 -0.0605615
0.347865 1.04857 -0.060819
0.368244 1.0485 -0.0609679
0.327405 1.04867 -0.060701
0.317156 1.05372 -0.0608684
0.358033 1.05352 -0.0612412
0.337606 1.05361 -0.0611572
0.388913 0.928658 -0.0532519
[...]
POINT_DATA 20907
VECTORS alpha float
-2.53516e-07 1.99582e-05 -1.25454e-06
-2.62049e-07 2.01588e-05 -1.24744e-06
9.03968e-07 -7.14024e-09 5.64242e-08
-2.46066e-07 1.99763e-05 -1.24338e-06
9.2856e-07 -6.90764e-09 5.90795e-08
-1.82969e-07 1.87575e-05 -1.20891e-06
-2.65177e-07 2.01407e-05 -1.24993e-06
-3.34814e-07 2.00443e-05 -1.32149e-06
1.00755e-06 -8.91226e-09 3.67886e-08
-3.04714e-07 2.00644e-05 -1.28773e-06
9.86196e-07 -8.62789e-09 3.7755e-08
-3.72451e-07 1.90506e-05 -1.17563e-06
-2.90539e-07 2.0083e-05 -1.24432e-06
9.68294e-07 -8.3891e-09 3.73057e-08
-2.67292e-07 2.01029e-05 -1.24529e-06
9.44244e-07 -8.07374e-09 3.6742e-08
-3.50859e-07 1.907e-05 -1.14735e-06
-3.50371e-07 1.90889e-05 -1.15017e-06
9.55617e-07 -8.27077e-09 -1.72579e-08
-2.53285e-07 2.01216e-05 -1.24345e-06
9.26907e-07 -7.84762e-09 3.71975e-08
9.35349e-07 -8.00516e-09 -1.54951e-08
-3.49898e-07 1.91089e-05 -1.15679e-06
9.10601e-07 -7.63485e-09 3.75192e-08
9.19796e-07 -7.8103e-09 -1.22284e-08
8.93191e-07 -7.41118e-09 3.8245e-08
-3.46268e-07 1.91276e-05 -1.13794e-06
8.9712e-07 -7.52739e-09 -1.01076e-08
9.22032e-07 -7.35819e-09 5.65922e-08
9.46202e-07 -7.10568e-09 5.96706e-08
-2.44019e-07 1.99396e-05 -1.26016e-06
-1.806e-07 1.87406e-05 -1.22065e-06
9.65421e-07 -7.30634e-09 5.96998e-08
-2.32697e-07 1.99211e-05 -1.24271e-06
1.04123e-06 -8.81508e-09 5.71167e-08
1.0186e-06 -8.54659e-09 5.59592e-08
1.00069e-06 -8.29516e-09 5.53082e-08
1.06547e-06 -8.53288e-09 5.9722e-08
1.08209e-06 -7.92384e-09 4.61613e-08
1.04299e-06 -8.2393e-09 5.99647e-08
-2.40409e-07 1.9843e-05 -1.28892e-06
-1.76804e-07 1.8648e-05 -1.22986e-06
-1.24568e-07 1.68668e-05 -1.13166e-06
-2.27417e-07 1.98631e-05 -1.27096e-06
-1.72436e-07 1.86671e-05 -1.23643e-06
1.05944e-06 -7.71632e-09 4.54941e-08
-2.16405e-07 1.98819e-05 -1.252e-06
1.02481e-06 -8.00734e-09 5.99685e-08
1.04169e-06 -7.48698e-09 4.54095e-08
-1.27673e-07 1.68838e-05 -1.13515e-06
1.00124e-06 -7.73483e-09 5.97856e-08
-1.72484e-07 1.86859e-05 -1.23815e-06
-1.20808e-07 1.69008e-05 -1.13351e-06
-2.1881e-07 1.99014e-05 -1.23905e-06
-1.71514e-07 1.87047e-05 -1.24282e-06
9.76709e-07 -8.03172e-09 5.47555e-08
1.01803e-06 -7.26952e-09 4.44535e-08
9.59174e-07 -7.78887e-09 5.64012e-08
9.82862e-07 -7.50868e-09 6.03774e-08
1.00022e-06 -7.04133e-09 4.45982e-08
-1.243e-07 1.69182e-05 -1.13722e-06
-1.69277e-07 1.87225e-05 -1.22973e-06
9.41936e-07 -7.58463e-09 5.79104e-08
9.83072e-07 -6.86263e-09 4.42988e-08
-1.17832e-07 1.69345e-05 -1.11449e-06
-1.13149e-07 1.69504e-05 -1.11447e-06
9.63512e-07 -6.68067e-09 4.32333e-08
-3.48097e-07 2.00241e-05 -1.34509e-06
-3.94462e-07 1.9031e-05 -1.20808e-06
1.02594e-06 -9.18747e-09 3.69171e-08
9.71592e-07 -8.49364e-09 -2.15684e-08
-3.43151e-07 2.00034e-05 -1.34011e-06
-4.13151e-07 1.90114e-05 -1.23882e-06
1.04601e-06 -9.45747e-09 3.856e-08
9.91895e-07 -8.76178e-09 -2.25673e-08
-3.45358e-07 1.99823e-05 -1.33099e-06
-4.12545e-07 1.89907e-05 -1.23037e-06
1.07028e-06 -9.79914e-09 4.00521e-08
1.01622e-06 -9.07007e-09 -2.18291e-08
-3.24926e-07 1.996e-05 -1.32156e-06
-4.07381e-07 1.89697e-05 -1.19382e-06
1.09841e-06 -1.01587e-08 4.06237e-08
1.04277e-06 -9.43729e-09 -2.27117e-08
-3.2645e-07 1.99373e-05 -1.31378e-06
-3.89385e-07 1.89468e-05 -1.16224e-06
1.11736e-06 -1.04686e-08 4.04036e-08
1.06101e-06 -9.70373e-09 -2.31069e-08
-3.37256e-07 1.99154e-05 -1.32071e-06
-4.08904e-07 1.89262e-05 -1.16642e-06
1.14513e-06 -1.0828e-08 4.06314e-08
1.08753e-06 -1.00079e-08 -2.46186e-08
-3.60626e-07 1.98933e-05 -1.32589e-06
-4.22921e-07 1.89042e-05 -1.18287e-06
-3.86974e-07 1.70299e-05 -9.85486e-07
-3.81521e-07 1.7052e-05 -1.00121e-06
-3.64642e-07 1.70718e-05 -9.91912e-07
-3.78056e-07 1.70934e-05 -1.00212e-06
-3.83594e-07 1.71138e-05 -1.03322e-06
1.00008e-06 -8.2642e-09 -1.2246e-07
-3.92802e-07 1.71337e-05 -1.03015e-06
9.74916e-07 -7.99389e-09 -1.19217e-07
-3.93392e-07 1.71541e-05 -9.85653e-07
-2.42502e-07 1.98228e-05 -1.30355e-06
-1.8146e-07 1.86286e-05 -1.23259e-06
-1.30223e-07 1.68487e-05 -1.13446e-06
1.06025e-06 -9.09633e-09 5.70512e-08
1.0855e-06 -8.8076e-09 5.95352e-08
1.10201e-06 -8.19133e-09 4.59932e-08
-2.49171e-07 1.98025e-05 -1.29145e-06
-1.81593e-07 1.86089e-05 -1.21628e-06
-1.25284e-07 1.68302e-05 -1.13796e-06
1.0799e-06 -9.36922e-09 5.85433e-08
1.10545e-06 -9.08597e-09 5.90949e-08
1.1218e-06 -8.40815e-09 4.60042e-08
-2.43482e-07 1.97819e-05 -1.29148e-06
-1.81837e-07 1.85899e-05 -1.20732e-06
-1.31899e-07 1.68123e-05 -1.14022e-06
1.10336e-06 -9.65637e-09 5.9956e-08
1.13211e-06 -1.00285e-08 6.30913e-08
1.15226e-06 -1.03315e-08 6.4647e-08
1.18097e-06 -1.06912e-08 6.63625e-08
1.14556e-06 -8.69208e-09 4.58347e-08
1.12932e-06 -9.40175e-09 5.87044e-08
-2.34597e-07 1.97606e-05 -1.30557e-06
-1.82159e-07 1.85695e-05 -1.21554e-06
-1.2975e-07 1.67933e-05 -1.14094e-06
1.15799e-06 -9.72539e-09 6.05662e-08
1.17324e-06 -9.03367e-09 4.57821e-08
-2.33339e-07 1.97384e-05 -1.29582e-06
-1.84037e-07 1.85487e-05 -1.21095e-06
-1.33616e-07 1.67741e-05 -1.13681e-06
1.17794e-06 -1.00079e-08 6.07831e-08
1.19404e-06 -9.26525e-09 4.60681e-08
-2.42166e-07 1.97169e-05 -1.29769e-06
-1.92656e-07 1.85281e-05 -1.22241e-06
-1.42224e-07 1.67551e-05 -1.12976e-06
1.2065e-06 -1.03277e-08 6.18306e-08
1.2226e-06 -9.60662e-09 4.52764e-08
-2.58705e-07 1.96948e-05 -1.29355e-06
-2.01538e-07 1.85064e-05 -1.22751e-06
-1.54724e-07 1.6735e-05 -1.13026e-06
-2.58033e-08 8.67282e-06 -5.96855e-07
-2.31134e-08 7.5171e-06 -5.18729e-07
-3.901e-08 1.14022e-05 -7.59886e-07
1.04968e-06 -2.71444e-09 2.04327e-08
1.06297e-06 -2.26836e-09 1.74386e-08
-2.78799e-08 9.94608e-06 -6.81356e-07
1.03541e-06 -3.29324e-09 2.05355e-08
-8.65654e-08 1.49851e-05 -9.75156e-07
-5.73204e-08 1.30868e-05 -8.62319e-07
1.00096e-06 -4.60009e-09 2.1188e-08
1.01909e-06 -4.08332e-09 1.68267e-08
1.04162e-06 -2.18815e-09 1.7397e-08
-2.90667e-08 9.9561e-06 -6.80561e-07
-2.47626e-08 8.68146e-06 -5.93989e-07
-2.20447e-08 7.52461e-06 -5.18426e-07
-7.95188e-09 6.42337e-06 -4.43959e-07
-5.84589e-09 4.28535e-06 -3.0138e-07
-3.11033e-09 5.35256e-06 -3.74418e-07
-2.37892e-09 3.21593e-06 -2.27186e-07
-2.07076e-09 2.14429e-06 -1.51155e-07
-5.19705e-10 1.07207e-06 -7.55954e-08
-6.01815e-09 4.28993e-06 -3.00012e-07
1.07176e-06 -1.65602e-09 1.41415e-08
1.08145e-06 -1.33769e-09 1.26353e-08
1.09036e-06 -1.21658e-09 9.50606e-09
-1.96841e-09 2.14658e-06 -1.50429e-07
1.09603e-06 -5.08321e-10 1.06849e-08
1.10002e-06 -2.55407e-10 8.50139e-09
1.10118e-06 -1.98881e-10 -2.53744e-09
1.04996e-06 -1.57777e-09 1.44694e-08
1.05952e-06 -1.27799e-09 1.29047e-08
1.06821e-06 -1.16637e-09 9.49924e-09
-7.45346e-09 6.42986e-06 -4.43759e-07
-2.82401e-09 5.358e-06 -3.74969e-07
1.07383e-06 -4.84742e-10 1.06539e-08
1.07778e-06 -2.47915e-10 8.43392e-09
1.07895e-06 -2.06657e-10 -2.47818e-09
-1.71627e-09 3.21925e-06 -2.26417e-07
-3.64972e-10 1.07318e-06 -7.52595e-08
9.98851e-07 -5.424e-09 2.5047e-08
1.01805e-06 -4.73742e-09 2.1178e-08
-5.58667e-08 1.30744e-05 -8.68723e-07
-3.70555e-08 1.13904e-05 -7.66421e-07
1.03913e-06 -4.85081e-09 2.20198e-08
-3.66436e-08 1.13788e-05 -7.74321e-07
1.10467e-06 -7.29294e-09 3.63632e-08
1.08244e-06 -7.07543e-09 3.56702e-08
1.06493e-06 -6.88275e-09 3.45078e-08
-3.25821e-08 1.13545e-05 -7.79085e-07
-2.72526e-08 1.13293e-05 -7.91064e-07
1.1244e-06 -6.37198e-09 2.77432e-08
1.14353e-06 -5.54922e-09 2.43577e-08
1.12045e-06 -5.3831e-09 2.37288e-08
-7.06901e-08 1.48941e-05 -9.99098e-07
-3.79464e-08 1.30064e-05 -8.8871e-07
-3.95101e-08 1.30197e-05 -8.86165e-07
-2.86468e-08 1.13414e-05 -7.866e-07
1.10056e-06 -6.20065e-09 2.7074e-08
1.08138e-06 -6.02735e-09 2.6825e-08
1.10086e-06 -5.25591e-09 2.3389e-08
-7.46555e-08 1.49094e-05 -9.95193e-07
1.07748e-06 -5.10529e-09 2.32619e-08
-4.25063e-08 1.30337e-05 -8.83864e-07
-7.70407e-08 1.49256e-05 -9.92106e-07
1.04196e-06 -6.66401e-09 3.36834e-08
-4.56711e-08 1.30477e-05 -8.76524e-07
-3.11863e-08 1.13665e-05 -7.74381e-07
1.05737e-06 -5.87486e-09 2.6395e-08
1.03851e-06 -5.70077e-09 2.62037e-08
1.0581e-06 -4.97299e-09 2.2763e-08
-8.07204e-08 1.4941e-05 -9.9035e-07
-8.17253e-08 1.49559e-05 -9.87197e-07
-4.9779e-08 1.30611e-05 -8.75131e-07
1.02256e-06 -6.45663e-09 3.36581e-08
1.00429e-06 -6.26277e-09 3.35687e-08
1.0196e-06 -5.56466e-09 2.59366e-08
-8.42031e-08 1.49704e-05 -9.82287e-07
9.8329e-07 -6.0889e-09 3.31002e-08
1.05283e-06 -3.40651e-09 2.02951e-08
1.06719e-06 -2.7947e-09 2.07678e-08
1.08053e-06 -2.33825e-09 1.7827e-08
1.03653e-06 -4.22783e-09 1.65239e-08
-2.35704e-08 8.66369e-06 -6.00383e-07
-2.14972e-08 7.50905e-06 -5.21807e-07
-2.58672e-08 9.93564e-06 -6.86934e-07
1.0749e-06 -3.48893e-09 2.07764e-08
1.08948e-06 -2.86061e-09 2.15869e-08
1.10289e-06 -2.38419e-09 1.8744e-08
1.05868e-06 -4.35041e-09 1.71249e-08
1.1635e-06 -4.90954e-09 2.13554e-08
1.14023e-06 -4.77313e-09 2.04965e-08
1.1205e-06 -4.67742e-09 1.94683e-08
1.09708e-06 -4.54629e-09 1.89033e-08
-2.16567e-08 8.65473e-06 -5.99723e-07
-2.03671e-08 7.50115e-06 -5.21434e-07
-2.44703e-08 9.92542e-06 -6.87617e-07
1.07817e-06 -4.44863e-09 1.80767e-08
1.09514e-06 -3.59065e-09 2.10701e-08
1.11008e-06 -2.95265e-09 2.18119e-08
1.12375e-06 -2.47495e-09 1.86677e-08
-1.65576e-08 8.64523e-06 -5.97705e-07
-1.65514e-08 7.49274e-06 -5.21403e-07
-1.9151e-08 9.90402e-06 -6.85465e-07
1.13044e-06 -3.03208e-09 2.19879e-08
1.14421e-06 -2.53274e-09 1.91628e-08
-1.62643e-08 8.63561e-06 -5.98384e-07
-1.66023e-08 7.48433e-06 -5.21086e-07
1.1395e-06 -3.8237e-09 2.1489e-08
1.15448e-06 -3.13629e-09 2.22994e-08
1.16839e-06 -2.61763e-09 1.96326e-08
-1.50649e-08 8.62582e-06 -6.01859e-07
-1.52329e-08 7.47577e-06 -5.23705e-07
1.17603e-06 -3.21506e-09 2.27298e-08
1.19025e-06 -2.66723e-09 2.04184e-08
1.18449e-06 -4.05581e-09 2.23926e-08
1.19981e-06 -3.31361e-09 2.32729e-08
1.21421e-06 -2.75228e-09 2.09957e-08
-1.37356e-08 9.88183e-06 -6.94453e-07
-1.23561e-08 8.61605e-06 -6.05395e-07
-1.29495e-08 7.46724e-06 -5.25335e-07
1.16046e-06 -3.93897e-09 2.19236e-08
-1.52211e-08 9.8924e-06 -6.91223e-07
1.11529e-06 -3.69319e-09 2.15265e-08
-1.792e-08 9.91454e-06 -6.86352e-07
-3.9086e-08 1.29918e-05 -8.948e-07
-2.89315e-08 1.13166e-05 -7.91823e-07
-7.20419e-08 1.4878e-05 -1.00203e-06
1.12393e-06 -7.47561e-09 3.64684e-08
1.16422e-06 -5.68411e-09 2.48962e-08
1.14459e-06 -6.56648e-09 2.78811e-08
-2.89233e-08 1.13033e-05 -7.92147e-07
-7.04272e-08 1.48616e-05 -1.00236e-06
-4.03946e-08 1.29773e-05 -8.99369e-07
1.14325e-06 -7.69139e-09 3.65917e-08
1.16563e-06 -6.7295e-09 2.84757e-08
1.18473e-06 -5.82667e-09 2.5516e-08
1.16747e-06 -7.89197e-09 3.71386e-08
1.19481e-06 -8.2018e-09 3.73833e-08
1.21567e-06 -8.39319e-09 3.81903e-08
1.24381e-06 -8.65636e-09 3.824e-08
-3.92148e-08 1.29625e-05 -8.96352e-07
-2.86199e-08 1.12906e-05 -7.85632e-07
-7.33654e-08 1.48449e-05 -1.00175e-06
1.20992e-06 -5.95837e-09 2.56855e-08
1.19027e-06 -6.91548e-09 2.84361e-08
-6.86223e-08 1.48276e-05 -1.00617e-06
-4.01818e-08 1.29467e-05 -8.96313e-07
-2.91205e-08 1.12768e-05 -7.88093e-07
1.23742e-06 -6.17237e-09 2.52769e-08
1.21774e-06 -7.17234e-09 2.75723e-08
-6.98968e-08 1.48103e-05 -1.00522e-06
-2.72388e-08 1.12628e-05 -7.7967e-07
-4.03998e-08 1.29312e-05 -8.91378e-07
1.2598e-06 -6.2754e-09 2.50917e-08
1.23985e-06 -7.32798e-09 2.72077e-08
-7.30038e-08 1.4793e-05 -1.00261e-06
-4.11209e-08 1.29154e-05 -8.8459e-07
-3.05781e-08 1.12488e-05 -7.80812e-07
1.28853e-06 -6.42038e-09 2.50762e-08
1.26861e-06 -7.55754e-09 2.69439e-08
-7.79111e-08 1.47746e-05 -9.99474e-07
-2.95412e-08 1.12342e-05 -7.75181e-07
-4.09947e-08 1.28988e-05 -8.78223e-07
-1.10773e-08 8.60619e-06 -6.06346e-07
-1.25564e-08 7.45859e-06 -5.25978e-07
-1.43109e-08 9.87071e-06 -6.97865e-07
1.18448e-06 -5.00683e-09 2.21883e-08
1.23678e-06 -2.82721e-09 2.13532e-08
1.20607e-06 -4.2005e-09 2.26551e-08
1.22164e-06 -3.44244e-09 2.32467e-08
-1.26024e-08 9.859e-06 -6.96331e-07
-1.22807e-08 8.59581e-06 -6.05346e-07
-1.39366e-08 7.44949e-06 -5.25096e-07
1.20546e-06 -5.11094e-09 2.34492e-08
1.23083e-06 -5.22065e-09 2.38088e-08
1.25865e-06 -5.41563e-09 2.33635e-08
1.28163e-06 -5.51313e-09 2.35682e-08
1.31072e-06 -5.66482e-09 2.38257e-08
1.22805e-06 -4.30738e-09 2.30543e-08
1.24383e-06 -3.52467e-09 2.38299e-08
1.25909e-06 -2.94011e-09 2.18383e-08
-1.12673e-08 9.84713e-06 -6.94734e-07
-8.78282e-09 8.58565e-06 -6.02874e-07
-1.17226e-08 7.44054e-06 -5.23046e-07
1.2856e-06 -3.00969e-09 2.2238e-08
1.25396e-06 -4.46995e-09 2.31215e-08
1.26974e-06 -3.64371e-09 2.37619e-08
-1.44182e-08 9.83498e-06 -6.99597e-07
-1.12964e-08 8.57497e-06 -6.05663e-07
-1.30331e-08 7.43128e-06 -5.23638e-07
1.2832e-06 -4.64817e-09 2.24637e-08
1.29909e-06 -3.7588e-09 2.34744e-08
1.31534e-06 -3.15444e-09 2.22919e-08
-1.36197e-08 9.82242e-06 -6.94908e-07
-1.20647e-08 7.42183e-06 -5.19866e-07
-1.17467e-08 8.56407e-06 -6.02914e-07
1.34006e-06 -3.22944e-09 2.26399e-08
1.30644e-06 -4.80998e-09 2.2236e-08
1.32272e-06 -3.87734e-09 2.32102e-08
-1.69935e-08 9.80985e-06 -6.92812e-07
-1.3507e-08 8.55293e-06 -6.04337e-07
-1.45766e-08 7.4121e-06 -5.2014e-07
1.35301e-06 -3.97233e-09 2.32796e-08
1.37009e-06 -3.35458e-09 2.26985e-08
1.33617e-06 -4.99184e-09 2.20418e-08
-1.81399e-08 9.79665e-06 -6.9117e-07
-1.5304e-08 7.40185e-06 -5.20747e-07
-1.54753e-08 8.54118e-06 -6.05422e-07
1.08999e-06 -1.72457e-09 1.36046e-08
1.09964e-06 -1.38592e-09 1.22912e-08
1.10865e-06 -1.24566e-09 9.54386e-09
-7.40327e-09 6.41641e-06 -4.45546e-07
-2.08409e-09 5.34677e-06 -3.75557e-07
-5.03001e-09 4.2807e-06 -3.01998e-07
1.1126e-06 -1.765e-09 1.38555e-08
1.12231e-06 -1.42251e-09 1.23653e-08
1.13154e-06 -1.29014e-09 9.82545e-09
-6.63138e-09 6.40961e-06 -4.44929e-07
-1.05453e-09 5.3411e-06 -3.75215e-07
-4.33365e-09 4.27616e-06 -3.01078e-07
1.14429e-06 -1.46606e-09 1.21505e-08
1.13395e-06 -1.81432e-09 1.38058e-08
1.15344e-06 -1.33626e-09 9.8897e-09
1.17476e-06 -1.37081e-09 9.93367e-09
-4.87075e-09 6.40229e-06 -4.46327e-07
4.24234e-10 5.33499e-06 -3.74792e-07
-3.13549e-09 4.27126e-06 -3.0071e-07
-6.29822e-09 6.39519e-06 -4.47729e-07
3.66413e-10 5.32916e-06 -3.74218e-07
-3.49553e-09 4.26656e-06 -3.01116e-07
1.15508e-06 -1.86851e-09 1.33542e-08
1.16508e-06 -1.50928e-09 1.20916e-08
1.17955e-06 -1.92135e-09 1.31381e-08
1.18963e-06 -1.55474e-09 1.19845e-08
1.19949e-06 -1.4078e-09 9.864e-09
-5.09347e-09 6.38756e-06 -4.50097e-07
1.70325e-09 5.32282e-06 -3.74389e-07
-2.7728e-09 4.26147e-06 -3.01588e-07
1.20208e-06 -1.97382e-09 1.29849e-08
1.21234e-06 -1.59956e-09 1.1926e-08
1.22236e-06 -1.43817e-09 9.87012e-09
-5.30161e-09 6.38046e-06 -4.51951e-07
2.36319e-09 5.31701e-06 -3.74084e-07
-2.56085e-09 4.2568e-06 -3.01484e-07
1.22618e-06 -2.02509e-09 1.28388e-08
1.23649e-06 -1.64303e-09 1.18168e-08
1.24662e-06 -1.48089e-09 9.71544e-09
1.11432e-06 -5.29434e-10 1.05941e-08
1.1183e-06 -2.58857e-10 8.55765e-09
1.11914e-06 -2.04339e-10 -2.58148e-09
-2.181e-09 3.21243e-06 -2.27527e-07
-1.78105e-09 2.14195e-06 -1.51314e-07
-4.77649e-10 1.0709e-06 -7.56621e-08
1.13727e-06 -5.52007e-10 1.07802e-08
1.14131e-06 -2.77053e-10 8.78873e-09
1.14241e-06 -1.94209e-10 -2.51944e-09
-2.07904e-09 3.20898e-06 -2.27208e-07
-1.64317e-09 2.13965e-06 -1.51132e-07
-4.75774e-10 1.06975e-06 -7.55565e-08
1.15968e-06 -5.75569e-10 1.08642e-08
1.16351e-06 -2.97941e-10 8.93723e-09
1.16465e-06 -2.07552e-10 -2.5564e-09
1.18069e-06 -5.96708e-10 1.09979e-08
1.18485e-06 -2.93596e-10 9.13757e-09
1.18594e-06 -1.76795e-10 -2.30937e-09
-1.50164e-09 3.20528e-06 -2.27272e-07
-1.3621e-09 2.13719e-06 -1.50917e-07
-4.28033e-10 1.06852e-06 -7.54227e-08
-2.15602e-09 3.20172e-06 -2.27795e-07
-1.53821e-09 2.13483e-06 -1.51082e-07
-5.8778e-10 1.06734e-06 -7.55097e-08
1.20551e-06 -6.0479e-10 1.12159e-08
1.20971e-06 -2.96996e-10 9.33549e-09
1.21079e-06 -1.74686e-10 -2.3306e-09
-1.7212e-09 3.19786e-06 -2.28302e-07
-1.23481e-09 2.13226e-06 -1.51319e-07
-5.14433e-10 1.06605e-06 -7.56317e-08
1.22852e-06 -6.32504e-10 1.14432e-08
1.23277e-06 -3.05527e-10 9.59523e-09
1.23385e-06 -1.62513e-10 -2.15594e-09
-1.27004e-09 2.12989e-06 -1.51286e-07
1.25283e-06 -6.49706e-10 1.16013e-08
1.25713e-06 -3.15886e-10 9.65746e-09
1.2582e-06 -1.65669e-10 -2.38084e-09
-1.44353e-09 3.19414e-06 -2.28659e-07
-5.31727e-10 1.06481e-06 -7.57185e-08
-3.93954e-09 6.37267e-06 -4.54232e-07
3.60241e-09 5.31051e-06 -3.76212e-07
-1.92266e-09 4.25157e-06 -3.02269e-07
1.24929e-06 -2.105e-09 1.20673e-08
1.25998e-06 -1.70759e-09 1.13556e-08
1.2704e-06 -1.51076e-09 9.57863e-09
-1.85907e-09 4.24632e-06 -3.02302e-07
-4.42432e-09 6.36481e-06 -4.54049e-07
3.27936e-09 5.30398e-06 -3.76266e-07
1.27156e-06 -2.16654e-09 1.21006e-08
1.28242e-06 -1.74555e-09 1.13327e-08
1.2932e-06 -1.56074e-09 9.76783e-09
-3.11039e-09 6.35708e-06 -4.51072e-07
4.56565e-09 5.29749e-06 -3.74975e-07
-1.60125e-09 4.24108e-06 -3.01917e-07
1.29892e-06 -2.25931e-09 1.1838e-08
1.30998e-06 -1.81818e-09 1.12055e-08
1.32088e-06 -1.61214e-09 9.68921e-09
-3.99078e-09 6.34908e-06 -4.51026e-07
-1.48371e-09 4.23569e-06 -3.0193e-07
4.48665e-09 5.2908e-06 -3.75646e-07
1.32872e-06 -2.35617e-09 1.14993e-08
1.34011e-06 -1.89966e-09 1.1115e-08
1.35122e-06 -1.66123e-09 9.75417e-09
-3.46228e-09 6.34087e-06 -4.48348e-07
4.98501e-09 5.28391e-06 -3.74311e-07
-1.42791e-09 4.23015e-06 -3.01234e-07
1.36561e-06 -1.94247e-09 1.11643e-08
1.37703e-06 -1.68805e-09 9.96315e-09
1.35322e-06 -2.42754e-09 1.14671e-08
-5.68058e-09 6.33246e-06 -4.47544e-07
4.31724e-09 5.27689e-06 -3.74185e-07
-1.88392e-09 4.2245e-06 -3.01022e-07
1.38417e-06 -2.52968e-09 1.16983e-08
1.39577e-06 -1.98854e-09 1.12395e-08
1.40733e-06 -1.71834e-09 1.01329e-08
-6.38609e-09 6.32365e-06 -4.46227e-07
4.37457e-09 5.26949e-06 -3.74339e-07
-1.95815e-09 4.21856e-06 -3.00974e-07
-1.46279e-09 3.19035e-06 -2.28791e-07
-1.02232e-09 2.12726e-06 -1.51411e-07
-5.93442e-10 1.06354e-06 -7.5692e-08
1.2768e-06 -6.68001e-10 1.17925e-08
1.28123e-06 -3.25997e-10 9.74546e-09
1.28235e-06 -1.61299e-10 -2.30415e-09
-1.01781e-09 2.12461e-06 -1.51597e-07
-1.7415e-09 3.18641e-06 -2.28817e-07
-6.82818e-10 1.06222e-06 -7.57871e-08
1.29974e-06 -7.02582e-10 1.18123e-08
1.30432e-06 -3.47802e-10 1.003e-08
1.30552e-06 -1.69104e-10 -2.27516e-09
-1.40542e-09 3.18243e-06 -2.28423e-07
-1.05916e-09 2.12196e-06 -1.51101e-07
-7.48137e-10 1.06088e-06 -7.54746e-08
1.32756e-06 -7.06507e-10 1.22367e-08
1.33219e-06 -3.46828e-10 1.02576e-08
1.33335e-06 -1.59676e-10 -2.21358e-09
-1.60538e-09 3.17837e-06 -2.28519e-07
-9.79922e-10 2.11923e-06 -1.51191e-07
-8.24203e-10 1.05952e-06 -7.55685e-08
1.35817e-06 -7.42422e-10 1.25828e-08
1.36293e-06 -3.75896e-10 1.04574e-08
1.36416e-06 -1.72441e-10 -2.03184e-09
-1.52066e-09 3.1742e-06 -2.27505e-07
-1.13968e-09 2.11644e-06 -1.50831e-07
-9.13277e-10 1.05812e-06 -7.53078e-08
1.38424e-06 -7.5621e-10 1.28664e-08
1.38915e-06 -3.77291e-10 1.07991e-08
1.38984e-06 -1.75848e-10 -1.8945e-09
-1.92522e-09 3.16995e-06 -2.27359e-07
-1.36106e-09 2.11359e-06 -1.50826e-07
-1.07367e-09 1.05669e-06 -7.52859e-08
1.41468e-06 -7.77493e-10 1.30201e-08
1.41965e-06 -3.96695e-10 1.10809e-08
1.42091e-06 -1.60814e-10 -1.75937e-09
-2.11588e-09 3.16548e-06 -2.27329e-07
-1.42245e-09 2.11059e-06 -1.50733e-07
-1.16811e-09 1.05519e-06 -7.52238e-08
-3.04177e-15 1.11488e-10 -7.89227e-12
-5.27364e-10 -1.07183e-06 7.58167e-08
-2.17456e-09 -2.14404e-06 1.51609e-07
-2.25447e-09 -3.21566e-06 2.2813e-07
-5.88764e-09 -4.28507e-06 3.02813e-07
-3.03971e-09 -5.35234e-06 3.74285e-07
-7.88123e-09 -6.42315e-06 4.43808e-07
-2.06193e-09 -2.14636e-06 1.50714e-07
1.10111e-06 1.71549e-10 2.14145e-09
1.10001e-06 2.41264e-10 -9.06775e-09
1.09599e-06 5.02536e-10 -1.07429e-08
-6.09649e-09 -4.28969e-06 3.00869e-07
1.09039e-06 1.22462e-09 -9.66892e-09
1.08147e-06 1.33224e-09 -1.26879e-08
1.07177e-06 1.65338e-09 -1.41784e-08
1.07889e-06 1.83341e-10 2.14635e-09
1.07778e-06 2.36328e-10 -8.9694e-09
1.07379e-06 4.8206e-10 -1.06023e-08
-1.91678e-14 1.1168e-10 -7.84896e-12
-3.80386e-10 -1.07296e-06 7.53794e-08
-1.67045e-09 -3.21902e-06 2.26993e-07
1.06823e-06 1.17643e-09 -9.58482e-09
1.05953e-06 1.27198e-09 -1.29667e-08
1.04997e-06 1.57455e-09 -1.45101e-08
-2.75678e-09 -5.35779e-06 3.74809e-07
-7.38539e-09 -6.42965e-06 4.43581e-07
-2.30512e-08 -7.51691e-06 5.18451e-07
-2.57553e-08 -8.67264e-06 5.96578e-07
1.06297e-06 2.26694e-09 -1.74759e-08
1.04967e-06 2.71605e-09 -2.04529e-08
1.03543e-06 3.29312e-09 -2.06226e-08