# vtk DataFile Version 3.0
vtk output
ASCII
DATASET POLYDATA
POINTS 1111 float
0.169995 0.0600514 -0.00292004
0.189996 0.0600561 -0.00300568
0.209997 0.060061 -0.00306928
0.229997 0.0600661 -0.00311714
0.159996 0.055039 -0.00269618
0.179996 0.0550419 -0.00278638
0.199997 0.0550449 -0.00285242
0.219998 0.055048 -0.00290104
0.239998 0.055051 -0.00293718
0.109994 0.0600375 -0.00245208
0.129994 0.0600406 -0.00265168
0.149994 0.0600438 -0.00280561
0.119995 0.0550281 -0.00241442
0.0899945 0.0600323 -0.00220596
0.139996 0.0550373 -0.00257237
0.149997 0.0500315 -0.0024603
0.169997 0.0500323 -0.00255578
0.189998 0.0500331 -0.00262533
0.209998 0.0500337 -0.0026759
0.229999 0.0500342 -0.00271292
0.0999957 0.0550252 -0.0022087
0.109997 0.0500194 -0.00216831
0.139998 0.0450277 -0.00219281
0.159998 0.045027 -0.00229219
0.179999 0.0450261 -0.00236453
0.199999 0.045025 -0.00241663
0.219999 0.0450235 -0.00245424
0.239999 0.0450217 -0.00248146
0.129997 0.0500327 -0.00232966
0.249998 0.0600595 -0.00315213
0.269998 0.060062 -0.00318555
0.289998 0.0600641 -0.00321434
0.309998 0.060066 -0.0032395
0.329999 0.0600675 -0.0032615
0.349999 0.0600688 -0.00328053
0.369999 0.0600697 -0.00329669
0.389999 0.0600703 -0.00331001
0.41 0.0600706 -0.00332051
0.43 0.0600706 -0.00332824
0.45 0.0600702 -0.00333322
0.470001 0.0600695 -0.00333545
0.490001 0.0600685 -0.00333489
0.259999 0.0550527 -0.00296754
0.279999 0.0550548 -0.00299503
0.299999 0.0550566 -0.00301894
0.319999 0.0550581 -0.0030399
0.339999 0.0550594 -0.00305816
0.359999 0.0550603 -0.00307383
0.38 0.055061 -0.00308694
0.4 0.0550613 -0.00309751
0.42 0.0550614 -0.00310557
0.44 0.0550611 -0.00311114
0.460001 0.0550605 -0.00311425
0.480001 0.0550596 -0.00311488
0.39 0.0500523 -0.00286195
0.41 0.0500524 -0.00287002
0.43 0.0500522 -0.00287588
0.450001 0.0500518 -0.00287956
0.470001 0.050051 -0.00288106
0.490001 0.05005 -0.00288038
0.3 0.0450409 -0.00254214
0.32 0.0450421 -0.00255787
0.34 0.0450431 -0.00257161
0.36 0.0450439 -0.00258339
0.38 0.0450445 -0.00259323
0.4 0.0450448 -0.00260112
0.420001 0.0450448 -0.00260709
0.440001 0.0450446 -0.00261115
0.460001 0.0450442 -0.00261332
0.480001 0.0450436 -0.00261361
0.249999 0.0500435 -0.00273987
0.269999 0.0500455 -0.00276565
0.29 0.0500472 -0.00278784
0.31 0.0500487 -0.00280726
0.33 0.05005 -0.00282428
0.35 0.050051 -0.00283902
0.37 0.0500518 -0.00285151
0.5 0.0450426 -0.00261202
0.26 0.045035 -0.00250507
0.28 0.0450369 -0.00252515
0.250001 0.0400279 -0.00223658
0.270001 0.0400296 -0.00225471
0.290001 0.0400312 -0.00227032
0.310001 0.0400328 -0.00228402
0.330001 0.0400343 -0.00229607
0.350001 0.0400358 -0.00230651
0.370001 0.0400371 -0.00231536
0.390001 0.0400383 -0.0023226
0.41 0.0400395 -0.00232824
0.43 0.0400405 -0.00233229
0.45 0.0400415 -0.00233478
0.47 0.0400423 -0.00233572
0.49 0.0400431 -0.0023351
0.5 0.0550585 -0.003113
0.509999 0.0600685 -0.00333491
0.529999 0.0600696 -0.00333547
0.55 0.0600702 -0.00333324
0.57 0.0600706 -0.00332826
0.59 0.0600706 -0.00332052
0.610001 0.0600704 -0.00331001
0.630001 0.0600697 -0.00329669
0.650001 0.0600688 -0.00328054
0.670001 0.0600676 -0.00326149
0.690002 0.060066 -0.00323949
0.710002 0.0600641 -0.00321433
0.730002 0.060062 -0.00318555
0.750002 0.0600595 -0.00315212
0.519999 0.0550597 -0.0031149
0.539999 0.0550605 -0.00311427
0.56 0.0550611 -0.00311116
0.58 0.0550614 -0.00310558
0.6 0.0550613 -0.00309751
0.62 0.055061 -0.00308694
0.640001 0.0550603 -0.00307383
0.660001 0.0550594 -0.00305816
0.680001 0.0550581 -0.0030399
0.700001 0.0550566 -0.00301894
0.720001 0.0550548 -0.00299503
0.740001 0.0550527 -0.00296754
0.509999 0.05005 -0.0028804
0.529999 0.050051 -0.00288108
0.549999 0.0500518 -0.00287958
0.57 0.0500522 -0.00287589
0.59 0.0500524 -0.00287003
0.61 0.0500523 -0.00286196
0.519999 0.0450436 -0.00261363
0.539999 0.0450442 -0.00261334
0.559999 0.0450447 -0.00261116
0.579999 0.0450448 -0.0026071
0.6 0.0450448 -0.00260113
0.62 0.0450445 -0.00259323
0.64 0.0450439 -0.00258339
0.66 0.0450431 -0.00257161
0.68 0.0450421 -0.00255787
0.7 0.0450409 -0.00254214
0.63 0.0500518 -0.00285152
0.65 0.050051 -0.00283902
0.67 0.05005 -0.00282428
0.69 0.0500487 -0.00280726
0.71 0.0500472 -0.00278784
0.730001 0.0500455 -0.00276564
0.750001 0.0500435 -0.00273986
0.72 0.0450369 -0.00252514
0.74 0.045035 -0.00250506
0.51 0.040043 -0.00233513
0.53 0.0400423 -0.00233574
0.55 0.0400415 -0.0023348
0.57 0.0400405 -0.00233231
0.59 0.0400395 -0.00232825
0.609999 0.0400383 -0.00232261
0.629999 0.0400371 -0.00231536
0.649999 0.0400358 -0.00230651
0.669999 0.0400343 -0.00229606
0.689999 0.0400328 -0.00228402
0.709999 0.0400312 -0.00227032
0.729999 0.0400296 -0.0022547
0.749999 0.0400279 -0.00223657
0.770003 0.060074 -0.00311126
0.790003 0.0600674 -0.00306428
0.810004 0.060061 -0.00300161
0.830005 0.060055 -0.00291693
0.760002 0.0550596 -0.00293147
0.780002 0.055055 -0.002896
0.800003 0.0550504 -0.00284816
0.820004 0.0550461 -0.00278298
0.840004 0.0550419 -0.00269366
0.850006 0.0600462 -0.00280345
0.870006 0.0600418 -0.00265043
0.890006 0.0600377 -0.00245171
0.860004 0.055039 -0.00257072
0.770001 0.0500341 -0.00271281
0.790002 0.0500336 -0.0026758
0.810002 0.050033 -0.00262526
0.830003 0.0500323 -0.00255573
0.850003 0.0500315 -0.00246026
0.880005 0.0550287 -0.00241362
0.910005 0.0600316 -0.00220639
0.760001 0.0450215 -0.00248134
0.780001 0.0450234 -0.00245414
0.800001 0.0450249 -0.00241656
0.820001 0.0450261 -0.00236447
0.840002 0.045027 -0.00229215
0.860002 0.0450277 -0.00219278
0.870003 0.0500328 -0.00232964
0.900004 0.055025 -0.0022087
0.890003 0.0500194 -0.0021683
0.119992 0.065046 -0.00265261
0.0999928 0.0650412 -0.0024172
0.0799938 0.0650366 -0.0021317
0.109991 0.0700491 -0.0026182
0.0899918 0.0700445 -0.00234291
0.0999906 0.0750526 -0.00249969
0.11999 0.0750573 -0.00275548
0.0799916 0.0750475 -0.00218913
0.0899903 0.0800553 -0.00234615
0.10999 0.0800606 -0.00263659
0.0999899 0.0850624 -0.00242222
0.11999 0.0850679 -0.00268508
0.079991 0.0850567 -0.0021041
0.0899906 0.0900636 -0.00218165
0.10999 0.0900696 -0.00247162
0.0999913 0.0950687 -0.0021558
0.119991 0.0950744 -0.00240863
0.109992 0.100073 -0.00209505
0.0699918 0.0800497 -0.00200286
0.0699936 0.0700407 -0.00201999
0.199995 0.0650642 -0.00317213
0.219996 0.0650689 -0.00323272
0.239997 0.0650735 -0.00327908
0.139993 0.0650509 -0.00284029
0.159993 0.0650556 -0.00298395
0.179994 0.0650604 -0.00309161
0.129991 0.0700545 -0.00284066
0.149992 0.0700592 -0.00301593
0.169993 0.0700639 -0.00314904
0.189994 0.0700685 -0.00324902
0.209995 0.070073 -0.00332442
0.229996 0.0700775 -0.00338208
0.139991 0.0750631 -0.0029603
0.159991 0.0750679 -0.0031183
0.179992 0.0750725 -0.00323762
0.199994 0.075077 -0.00332748
0.219995 0.0750813 -0.00339592
0.239996 0.0750855 -0.00344901
0.14999 0.0800717 -0.00305787
0.169991 0.0800765 -0.00319966
0.189992 0.080081 -0.00330683
0.209993 0.0800853 -0.00338833
0.229995 0.0800893 -0.00345149
0.12999 0.0800666 -0.00287205
0.13999 0.0850744 -0.00289593
0.159991 0.0850796 -0.00305915
0.179991 0.0850846 -0.00318306
0.199993 0.0850892 -0.00327705
0.219994 0.0850936 -0.00334935
0.239995 0.0850977 -0.00340626
0.12999 0.0900764 -0.00270702
0.14999 0.0900821 -0.00289297
0.169991 0.0900875 -0.00303524
0.189992 0.0900925 -0.00314316
0.209993 0.0900973 -0.00322564
0.229994 0.0901018 -0.00328997
0.139991 0.0950811 -0.00261053
0.159991 0.0950866 -0.00276651
0.179992 0.0950917 -0.00288456
0.199993 0.0950965 -0.00297382
0.219994 0.095101 -0.00304236
0.239995 0.0951053 -0.00309631
0.129992 0.10008 -0.00231161
0.149992 0.100085 -0.00248145
0.169993 0.10009 -0.00261022
0.189993 0.100095 -0.00270687
0.209994 0.1001 -0.00277996
0.229995 0.100104 -0.00283646
0.219996 0.10509 -0.00242601
0.239997 0.105093 -0.00246716
0.159994 0.105078 -0.00220342
0.179995 0.105082 -0.0023008
0.199996 0.105086 -0.00237247
0.139994 0.105074 -0.00207139
0.249995 0.0800931 -0.00350208
0.249994 0.090106 -0.00333888
0.249995 0.100108 -0.00287922
0.229998 0.110078 -0.00204751
0.249996 0.0700763 -0.00342086
0.209998 0.110075 -0.00201027
0.259997 0.0650691 -0.00331324
0.279997 0.0650716 -0.00334791
0.299998 0.0650738 -0.00337798
0.319998 0.0650758 -0.00340414
0.339998 0.0650775 -0.00342664
0.359999 0.0650789 -0.00344551
0.329998 0.0700859 -0.00355397
0.349998 0.0700878 -0.00357638
0.369998 0.0700895 -0.00359446
0.269996 0.0700786 -0.003461
0.289997 0.0700813 -0.00349651
0.309997 0.0700837 -0.00352736
0.259995 0.0750856 -0.00349087
0.279996 0.0750886 -0.00353178
0.299996 0.0750915 -0.00356719
0.319997 0.0750941 -0.00359778
0.339997 0.0750964 -0.00362369
0.359998 0.0750985 -0.00364478
0.269995 0.0800961 -0.00354675
0.289995 0.0800992 -0.00358675
0.309996 0.0801022 -0.00362141
0.329996 0.0801049 -0.00365109
0.349997 0.0801073 -0.00367578
0.369997 0.0801095 -0.0036952
0.259994 0.0851012 -0.00345176
0.279994 0.0851046 -0.00349539
0.299995 0.0851079 -0.00353329
0.319996 0.0851109 -0.0035661
0.339996 0.0851137 -0.00359401
0.359997 0.0851161 -0.00361684
0.269994 0.0901093 -0.0033848
0.289995 0.0901129 -0.00342556
0.309995 0.0901161 -0.00346104
0.329996 0.0901192 -0.00349162
0.349996 0.0901219 -0.0035173
0.369997 0.0901243 -0.00353783
0.299995 0.0951159 -0.00321571
0.319996 0.0951191 -0.00324683
0.339996 0.0951219 -0.00327342
0.359997 0.0951245 -0.00329533
0.259994 0.0951089 -0.00313882
0.279995 0.0951125 -0.00317992
0.269995 0.100111 -0.00291944
0.289995 0.100115 -0.00295505
0.309996 0.100118 -0.00298614
0.329996 0.100121 -0.00301306
0.349997 0.100124 -0.00303577
0.369997 0.100126 -0.00305403
0.259996 0.105096 -0.00249899
0.279996 0.105099 -0.00253005
0.299996 0.105102 -0.00255712
0.319997 0.105105 -0.00258075
0.339997 0.105107 -0.00260099
0.359998 0.10511 -0.00261767
0.349998 0.110092 -0.00217054
0.369999 0.110094 -0.00218165
0.249998 0.11008 -0.00207425
0.269998 0.110083 -0.00209937
0.289998 0.110085 -0.00212104
0.309998 0.110088 -0.00214006
0.329998 0.11009 -0.00215668
0.379998 0.0650797 -0.00346448
0.399999 0.0650806 -0.00347842
0.419999 0.0650811 -0.00348935
0.44 0.0650813 -0.00349731
[...]
POINT_DATA 1111
VECTORS alpha float
-0.000119249 -2.46425e-08 4.82487e-07
-0.000124812 -2.71831e-08 3.68028e-07
-0.000129038 -2.93981e-08 2.79408e-07
-0.000132305 -3.12492e-08 2.12857e-07
-3.79217e-10 1.56033e-06 -5.53216e-08
-4.75374e-10 2.11538e-06 -7.89279e-08
-5.45337e-10 2.66751e-06 -1.03543e-07
-5.48474e-10 2.9794e-06 -1.19353e-07
-4.96437e-10 3.01289e-06 -1.23879e-07
-9.0866e-05 -1.09297e-08 8.59144e-07
-0.000102542 -1.30675e-08 7.53744e-07
-0.000111942 -1.49137e-08 6.1712e-07
-8.04062e-10 3.07204e-06 -9.33452e-08
-7.70214e-05 -8.61617e-10 8.96328e-07
-3.98453e-10 1.55505e-06 -5.15377e-08
-7.80373e-05 -1.5653e-09 3.43239e-07
-8.1274e-05 -1.48476e-09 2.58127e-07
-8.31542e-05 -1.26162e-09 1.88518e-07
-8.40938e-05 -8.7793e-10 1.36179e-07
-8.44539e-05 -3.18687e-10 9.76351e-08
-1.93087e-09 7.57835e-06 -2.04576e-07
-6.60381e-05 9.4449e-09 5.04943e-07
2.08504e-10 -9.41892e-07 3.97076e-08
1.23669e-11 -5.99001e-08 2.67323e-09
-2.20134e-10 1.17368e-06 -5.4647e-08
-3.6764e-10 2.19629e-06 -1.05591e-07
-4.1349e-10 2.79799e-06 -1.37916e-07
-3.87401e-10 2.98593e-06 -1.50169e-07
-7.30481e-05 2.2708e-09 4.34961e-07
-0.000134911 -1.46419e-08 1.91978e-07
-0.000137074 -1.33005e-08 1.6614e-07
-0.000138924 -1.17415e-08 1.46896e-07
-0.000140539 -1.00052e-08 1.30555e-07
-0.000141955 -8.13183e-09 1.15066e-07
-0.00014319 -6.1574e-09 9.95191e-08
-0.000144252 -4.11133e-09 8.36531e-08
-0.000145146 -2.01596e-09 6.74998e-08
-0.000145878 1.13132e-10 5.11601e-08
-0.000146452 2.26637e-09 3.46916e-08
-0.000146877 4.43927e-09 1.80673e-08
-0.000147156 6.6316e-09 1.17453e-09
-0.000147295 8.84627e-09 -1.61661e-08
-4.24731e-10 2.82832e-06 -1.17593e-07
-3.33901e-10 2.51408e-06 -1.06274e-07
-2.51208e-10 2.14873e-06 -9.21233e-08
-1.827e-10 1.78631e-06 -7.75211e-08
-1.29198e-10 1.45643e-06 -6.38674e-08
-8.89532e-11 1.17024e-06 -5.17751e-08
-5.93839e-11 9.27518e-07 -4.13425e-08
-3.80009e-11 7.22307e-07 -3.23919e-08
-2.27779e-11 5.46731e-07 -2.46355e-08
-1.22203e-11 3.93015e-07 -1.77711e-08
-5.30037e-12 2.5434e-07 -1.15261e-08
-1.35613e-12 1.24972e-07 -5.66877e-09
-8.39415e-05 -3.43165e-10 2.86968e-08
-8.38909e-05 7.24307e-10 2.12828e-08
-8.3844e-05 1.79726e-09 1.39121e-08
-8.38039e-05 2.87785e-09 6.56324e-09
-8.37746e-05 3.97018e-09 -8.2662e-10
-8.37592e-05 5.07993e-09 -8.3496e-09
-1.85057e-10 2.20086e-06 -1.14509e-07
-1.31747e-10 1.82816e-06 -9.60225e-08
-9.14197e-11 1.48972e-06 -7.88866e-08
-6.20219e-11 1.19865e-06 -6.39155e-08
-4.09977e-11 9.53813e-07 -5.11575e-08
-2.60951e-11 7.47489e-07 -4.02829e-08
-1.56137e-11 5.70167e-07 -3.08418e-08
-8.38306e-12 4.1307e-07 -2.24052e-08
-3.64791e-12 2.69088e-07 -1.46208e-08
-9.43962e-13 1.32794e-07 -7.22057e-09
-8.45049e-05 -7.11833e-09 8.88889e-08
-8.44241e-05 -6.3827e-09 7.55435e-08
-8.43092e-05 -5.56803e-09 6.59397e-08
-8.42037e-05 -4.69843e-09 5.8002e-08
-8.4119e-05 -3.79261e-09 5.06249e-08
-8.40517e-05 -2.86408e-09 4.33347e-08
-8.39943e-05 -1.92192e-09 3.60027e-08
-1.17262e-17 1.90747e-11 -1.03685e-12
-3.13055e-10 2.86785e-06 -1.45677e-07
-2.42569e-10 2.57078e-06 -1.3228e-07
-4.36766e-05 -3.03803e-09 3.00674e-08
-4.21484e-05 -2.87857e-09 2.46365e-08
-4.0792e-05 -2.70456e-09 2.08992e-08
-3.96178e-05 -2.52778e-09 1.79382e-08
-3.86112e-05 -2.35454e-09 1.52956e-08
-3.775e-05 -2.18759e-09 1.27839e-08
-3.70136e-05 -2.02759e-09 1.03509e-08
-3.63878e-05 -1.8741e-09 7.99664e-09
-3.58651e-05 -1.72608e-09 5.72931e-09
-3.54432e-05 -1.58201e-09 3.54659e-09
-3.51234e-05 -1.43989e-09 1.43097e-09
-3.49083e-05 -1.2971e-09 -6.48005e-10
-3.48002e-05 -1.15036e-09 -2.72871e-09
-1.72555e-17 3.27755e-11 -1.48612e-12
-0.000147295 -8.84826e-09 1.61397e-08
-0.000147156 -6.63395e-09 -1.19771e-09
-0.000146877 -4.44096e-09 -1.80877e-08
-0.000146453 -2.26613e-09 -3.47097e-08
-0.000145878 -1.09673e-10 -5.11762e-08
-0.000145147 2.02366e-09 -6.75141e-08
-0.000144253 4.12359e-09 -8.36657e-08
-0.000143191 6.17358e-09 -9.953e-08
-0.000141956 8.15026e-09 -1.15075e-07
-0.00014054 1.00234e-08 -1.30562e-07
-0.000138926 1.17566e-08 -1.46901e-07
-0.000137075 1.33099e-08 -1.66143e-07
-0.000134913 1.46435e-08 -1.91979e-07
-1.20857e-12 -1.24906e-07 5.66581e-09
-5.00275e-12 -2.54274e-07 1.15232e-08
-1.17671e-11 -3.92949e-07 1.77681e-08
-2.21597e-11 -5.46664e-07 2.46324e-08
-3.7203e-11 -7.22239e-07 3.23888e-08
-5.83852e-11 -9.27448e-07 4.13394e-08
-8.77256e-11 -1.17017e-06 5.17719e-08
-1.27708e-10 -1.45635e-06 6.38642e-08
-1.80914e-10 -1.78623e-06 7.75178e-08
-2.49102e-10 -2.14865e-06 9.21199e-08
-3.31478e-10 -2.51401e-06 1.0627e-07
-4.22045e-10 -2.82824e-06 1.17589e-07
-8.37592e-05 -5.08067e-09 8.33696e-09
-8.37747e-05 -3.97117e-09 8.15102e-10
-8.38041e-05 -2.87851e-09 -6.57373e-09
-8.38442e-05 -1.79687e-09 -1.39217e-08
-8.38912e-05 -7.22149e-10 -2.12915e-08
-8.39417e-05 3.47677e-10 -2.87048e-08
-8.04239e-13 -1.32756e-07 7.21852e-09
-3.36715e-12 -2.69049e-07 1.46187e-08
-7.95795e-12 -4.1303e-07 2.24031e-08
-1.50375e-11 -5.70127e-07 3.08397e-08
-2.53558e-11 -7.47448e-07 4.02807e-08
-4.00761e-11 -9.53771e-07 5.11552e-08
-6.0891e-11 -1.1986e-06 6.39132e-08
-9.00455e-11 -1.48968e-06 7.88842e-08
-1.30094e-10 -1.82811e-06 9.602e-08
-1.83101e-10 -2.20081e-06 1.14506e-07
-8.39946e-05 1.92899e-09 -3.60099e-08
-8.40521e-05 2.87338e-09 -4.3341e-08
-8.41195e-05 3.80322e-09 -5.06303e-08
-8.42042e-05 4.70895e-09 -5.80063e-08
-8.43098e-05 5.57678e-09 -6.59426e-08
-8.44247e-05 6.38804e-09 -7.55449e-08
-8.45056e-05 7.11894e-09 -8.88886e-08
-2.40317e-10 -2.57073e-06 1.32277e-07
-3.10574e-10 -2.86779e-06 1.45674e-07
-3.48008e-05 1.13643e-09 2.72398e-09
-3.49098e-05 1.28416e-09 6.43187e-10
-3.51259e-05 1.4281e-09 -1.43595e-09
-3.54465e-05 1.57157e-09 -3.55181e-09
-3.5869e-05 1.7172e-09 -5.73482e-09
-3.63921e-05 1.86698e-09 -8.00245e-09
-3.70181e-05 2.02231e-09 -1.0357e-08
-3.77544e-05 2.18409e-09 -1.27901e-08
-3.86154e-05 2.35255e-09 -1.53018e-08
-3.96215e-05 2.52688e-09 -1.79442e-08
-4.07951e-05 2.70421e-09 -2.09048e-08
-4.21507e-05 2.87819e-09 -2.46415e-08
-4.36781e-05 3.03713e-09 -3.00714e-08
-0.000132307 4.18961e-08 -2.07461e-07
-0.000129039 3.90749e-08 -2.73539e-07
-0.000124813 3.58587e-08 -3.62081e-07
-0.00011925 3.22785e-08 -4.7677e-07
-4.94375e-10 -3.01289e-06 1.23546e-07
-5.46246e-10 -2.97937e-06 1.19111e-07
-5.43204e-10 -2.66746e-06 1.03387e-07
-4.73597e-10 -2.1153e-06 7.88426e-08
-3.7786e-10 -1.56023e-06 5.52807e-08
-0.000111944 2.14703e-08 -6.11876e-07
-0.000102543 1.85153e-08 -7.4916e-07
-9.08673e-05 1.5264e-08 -8.55349e-07
-3.97082e-10 -1.55493e-06 5.15156e-08
-8.44545e-05 1.28916e-10 -9.7532e-08
-8.40945e-05 7.00958e-10 -1.36087e-07
-8.3155e-05 1.09906e-09 -1.88436e-07
-8.12748e-05 1.33907e-09 -2.58056e-07
-7.80381e-05 1.43928e-09 -3.43178e-07
-8.01403e-10 -3.07192e-06 9.3336e-08
-7.70227e-05 4.11811e-09 -8.93385e-07
-3.84901e-10 -2.98587e-06 1.5016e-07
-4.11148e-10 -2.79793e-06 1.37909e-07
-3.65806e-10 -2.19621e-06 1.05586e-07
-2.19153e-10 -1.17359e-06 5.46421e-08
1.2342e-11 6.00142e-08 -2.67831e-09
2.07788e-10 9.42024e-07 -3.97131e-08
-7.30489e-05 -2.37906e-09 -4.34913e-07
-1.92446e-09 -7.57825e-06 2.0462e-07
-6.60389e-05 -9.52921e-09 -5.04906e-07
-2.14901e-09 8.91669e-06 -1.61722e-07
-3.33943e-09 1.45083e-05 -2.24733e-07
-5.1426e-09 2.49083e-05 -3.11646e-07
-0.000118069 -2.12e-08 1.27527e-06
-9.8653e-05 -1.86593e-08 1.30782e-06
-3.40867e-09 2.42254e-05 -2.32426e-08
-2.72596e-09 1.75508e-05 -4.34037e-08
-4.17058e-09 3.53768e-05 2.47112e-08
-0.000121224 -2.64143e-08 1.7388e-06
-0.000146926 -3.04368e-08 1.72463e-06
6.41577e-10 3.708e-05 6.13896e-07
2.41006e-11 2.94036e-05 4.87758e-07
1.701e-09 4.87958e-05 8.02017e-07
-0.000143991 -3.68065e-08 2.11603e-06
-0.000176591 -4.30567e-08 2.13153e-06
1.26923e-08 5.33655e-05 1.95948e-06
1.00135e-08 4.48618e-05 1.73666e-06
-0.000204095 -4.91255e-08 2.35339e-06
-9.43927e-05 -2.11864e-08 1.569e-06
-7.77346e-05 -4.90331e-09 1.20254e-06
-9.75885e-10 4.7847e-06 -1.19945e-07
-8.6511e-10 4.61647e-06 -1.20736e-07
-7.38717e-10 4.3203e-06 -1.17062e-07
-1.50868e-09 6.2611e-06 -1.27656e-07
-1.21538e-09 5.21837e-06 -1.16102e-07
-1.07739e-09 4.90123e-06 -1.16585e-07
-0.00013532 -2.69146e-08 1.16531e-06
-0.000150135 -3.00084e-08 9.80765e-07
-0.000162573 -3.25731e-08 7.89552e-07
-0.000172908 -3.4716e-08 6.2153e-07
-0.000181507 -3.6439e-08 4.87578e-07
-0.000188738 -3.76627e-08 3.84585e-07
-2.2214e-09 1.36768e-05 -5.15034e-08
-1.86924e-09 1.1445e-05 -5.5627e-08
-1.61098e-09 1.00756e-05 -5.83594e-08
-1.39687e-09 9.09067e-06 -5.99026e-08
-1.20091e-09 8.23789e-06 -5.99885e-08
-1.01552e-09 7.4129e-06 -5.85392e-08
-0.000191853 -3.9743e-08 1.36837e-06
-0.00021052 -4.15561e-08 1.12234e-06
-0.000226785 -4.27421e-08 9.01398e-07
-0.000240941 -4.34128e-08 7.23695e-07
-0.000253317 -4.35047e-08 5.88461e-07
-0.000170623 -3.69847e-08 1.59721e-06
-3.33742e-10 2.42964e-05 4.04007e-07
-5.37596e-10 2.07832e-05 3.45572e-07
-6.48111e-10 1.82124e-05 3.02318e-07
-6.9549e-10 1.61732e-05 2.67683e-07
-6.9697e-10 1.44297e-05 2.37878e-07
-6.64918e-10 1.2862e-05 2.10986e-07
-0.000207538 -5.19804e-08 1.99811e-06
-0.000236155 -5.60855e-08 1.73823e-06
-0.00026216 -5.88413e-08 1.44854e-06
-0.000285563 -6.07421e-08 1.18289e-06
-0.000306547 -6.19824e-08 9.66501e-07
-0.000325362 -6.24765e-08 8.00839e-07
7.82411e-09 3.859e-05 1.56228e-06
6.04721e-09 3.37711e-05 1.41707e-06
4.61727e-09 2.99001e-05 1.29155e-06
3.48023e-09 2.6652e-05 1.17866e-06
2.58909e-09 2.38251e-05 1.07407e-06
1.90142e-09 2.12984e-05 9.75357e-07
-0.000242787 -5.97883e-08 2.21885e-06
-0.00027951 -6.51713e-08 1.94129e-06
-0.000313766 -6.91086e-08 1.62355e-06
-0.000345378 -7.21908e-08 1.32855e-06
-0.000374376 -7.46239e-08 1.08759e-06
-0.000400893 -7.6244e-08 9.04316e-07
1.17636e-08 3.69835e-05 2.89442e-06
9.33728e-09 3.33037e-05 2.66836e-06
2.22674e-08 5.07828e-05 3.58986e-06
1.82053e-08 4.55947e-05 3.35588e-06
1.47043e-08 4.10451e-05 3.12379e-06
2.68087e-08 5.68311e-05 3.8251e-06
-0.000264205 -4.17248e-08 5.08268e-07
-0.000342254 -6.02608e-08 6.98287e-07
-0.000425088 -7.46494e-08 7.94812e-07
0.00230751 3.17858e-07 -3.69246e-06
-0.00019491 -2.63265e-08 3.34535e-07
0.00223335 3.14784e-07 -4.77086e-06
-6.06199e-10 3.9122e-06 -1.0793e-07
-4.80314e-10 3.44168e-06 -9.71103e-08
-3.69589e-10 2.95789e-06 -8.50823e-08
-2.77184e-10 2.49608e-06 -7.29994e-08
-2.02878e-10 2.07544e-06 -6.1573e-08
-1.44654e-10 1.70249e-06 -5.11347e-08
-0.000212721 -1.89399e-08 2.12169e-07
-0.000215896 -1.66559e-08 1.76503e-07
-0.000218634 -1.40847e-08 1.36454e-07
-0.000200262 -2.38202e-08 3.11054e-07
-0.000204953 -2.25565e-08 2.76489e-07
-0.000209086 -2.09176e-08 2.44776e-07
-7.87296e-10 6.59325e-06 -5.54082e-08
-6.38612e-10 5.79165e-06 -5.10922e-08
-5.07725e-10 5.02798e-06 -4.62295e-08
-3.95547e-10 4.31722e-06 -4.11439e-08
-3.01458e-10 3.66609e-06 -3.60582e-08
-2.23926e-10 3.07421e-06 -3.1101e-08
-0.000273845 -3.92438e-08 4.93366e-07
-0.00028241 -3.81091e-08 4.40815e-07
-0.000290016 -3.63112e-08 3.90508e-07
-0.000296742 -3.38629e-08 3.36742e-07
-0.000302638 -3.07751e-08 2.75869e-07
-0.000307741 -2.70366e-08 2.05298e-07
-4.76762e-10 1.14177e-05 1.85461e-07
-4.31989e-10 1.00775e-05 1.63195e-07
-3.77611e-10 8.83426e-06 1.42582e-07
-3.19607e-10 7.68293e-06 1.23538e-07
-2.62226e-10 6.61696e-06 1.05948e-07
-2.08282e-10 5.62768e-06 8.96657e-08
-0.000357438 -5.76858e-08 6.74614e-07
-0.000371077 -5.65455e-08 6.09246e-07
-0.000383283 -5.441e-08 5.46025e-07
-0.000394139 -5.12836e-08 4.7761e-07
-0.0004037 -4.71811e-08 3.99349e-07
-0.000412005 -4.20949e-08 3.08021e-07
8.28634e-10 1.49287e-05 7.07396e-07
5.84617e-10 1.31029e-05 6.26147e-07
4.02998e-10 1.13902e-05 5.48082e-07
2.6876e-10 9.77376e-06 4.72861e-07
1.58717e-09 1.90003e-05 8.80666e-07
1.15458e-09 1.6887e-05 7.9214e-07
-0.000447115 -7.2165e-08 7.6815e-07
-0.000467096 -7.14969e-08 6.99837e-07
-0.000485118 -6.94631e-08 6.33309e-07
-0.000501244 -6.60638e-08 5.59751e-07
-0.000515517 -6.13308e-08 4.73665e-07
-0.000527966 -5.52802e-08 3.71406e-07
7.66256e-09 2.99276e-05 2.44551e-06
5.99288e-09 2.67968e-05 2.22884e-06
4.63843e-09 2.38658e-05 2.0155e-06
3.54067e-09 2.10987e-05 1.80515e-06
2.65212e-09 1.84665e-05 1.59741e-06
1.93546e-09 1.59453e-05 1.39194e-06
0.0026153 2.48264e-07 -1.65288e-06
0.00264729 2.23647e-07 -1.26763e-06
0.00237427 2.95565e-07 -3.24668e-06
0.0024343 2.95116e-07 -2.82846e-06
0.00248804 2.89345e-07 -2.52604e-06
0.00253592 2.7802e-07 -2.26266e-06
0.00257824 2.61476e-07 -1.99199e-06
-9.12392e-11 1.37558e-06 -4.17038e-08
-6.13136e-11 1.0888e-06 -3.32995e-08
-3.88394e-11 8.34648e-07 -2.57023e-08
-2.23797e-11 6.05479e-07 -1.87391e-08
-1.087e-11 3.94185e-07 -1.2239e-08
-3.56853e-12 1.94338e-07 -6.0422e-09
-0.000220959 -1.31695e-08 1.47927e-07
-0.000222867 -1.01707e-08 1.19122e-07
-0.000224379 -7.10162e-09 9.0721e-08
-0.000225504 -3.98059e-09 6.24995e-08
-0.000226249 -8.16727e-10 3.40961e-08
-0.00022662 2.38716e-09 5.04459e-09
-1.16311e-10 2.5365e-06 -2.60121e-08
-8.62927e-11 2.04538e-06 -2.14104e-08
-6.12806e-11 1.59244e-06 -1.69361e-08
-4.06529e-11 1.16925e-06 -1.25787e-08
-2.38612e-11 7.67784e-07 -8.31852e-09
-1.04407e-11 3.80467e-07 -4.1331e-09
-0.000312089 -2.47427e-08 2.60631e-07
-0.000315671 -1.98161e-08 2.13461e-07
-0.000318518 -1.47394e-08 1.66661e-07
-0.000320642 -9.55421e-09 1.19726e-07
-0.000322053 -4.28718e-09 7.19438e-08
-0.000322756 1.04527e-09 2.24246e-08
-4.19927e-11 4.7051e-06 7.51569e-08
-4.49275e-11 3.83868e-06 6.10998e-08
-4.28465e-11 3.01801e-06 4.79201e-08
-3.6819e-11 2.23311e-06 3.54144e-08
-2.75009e-11 1.47448e-06 2.33878e-08
-1.52164e-11 7.33086e-07 1.16489e-08
-0.000419101 -3.5915e-08 3.85322e-07
-0.000424969 -2.87088e-08 3.18988e-07
-0.000429645 -2.1238e-08 2.52003e-07
-0.000433142 -1.35722e-08 1.836e-07
-0.000435468 -5.75859e-09 1.12685e-07
-0.00043663 2.1717e-09 3.78693e-08
3.69613e-10 8.238e-06 4.0155e-07
2.2204e-10 6.76884e-06 3.31238e-07
1.13933e-10 5.35335e-06 2.62832e-07
4.05021e-11 3.97961e-06 1.95918e-07
-1.64804e-12 2.63649e-06 1.30085e-07
-1.47473e-11 1.31345e-06 6.49248e-08
-0.000538634 -4.67382e-08 4.66559e-07
-0.000547487 -3.73511e-08 3.85792e-07
-0.00055456 -2.75321e-08 3.02981e-07
-0.000559859 -1.73789e-08 2.17109e-07
-0.000563388 -6.95799e-09 1.26717e-07
-0.000565151 3.68854e-09 2.99269e-08
1.67468e-09 1.35148e-05 1.19115e-06
1.09999e-09 1.11581e-05 9.8987e-07
6.55591e-10 8.85989e-06 7.90173e-07
3.30337e-10 6.60684e-06 5.91695e-07
1.16062e-10 4.38668e-06 3.94083e-07
7.10741e-12 2.18802e-06 1.96977e-07
0.00267452 1.95104e-07 -1.68098e-06
0.0026969 1.53861e-07 -1.3572e-06
0.00271466 1.11381e-07 -1.03084e-06
0.00272791 6.78647e-08 -6.95319e-07
0.0027367 2.33426e-08 -3.42227e-07
0.00274108 -2.22871e-08 3.87004e-08
-8.77721e-16 1.23374e-10 -1.33752e-12
4.87675e-16 6.51092e-11 -2.02321e-12
-3.30992e-12 -1.94208e-07 6.03819e-09
-1.03514e-11 -3.94055e-07 1.2235e-08
-2.15957e-11 -6.05349e-07 1.87352e-08
-3.7781e-11 -8.34519e-07 2.56983e-08
-5.99666e-11 -1.08867e-06 3.32955e-08
-8.9583e-11 -1.37545e-06 4.16998e-08
-1.72122e-15 2.16383e-10 3.45106e-12
-2.81136e-15 3.54184e-10 1.75344e-11
0 0 0
-0.00022662 -2.41507e-09 -5.01399e-09
-0.000226249 7.90327e-10 -3.40666e-08
-0.000225504 3.95731e-09 -6.2472e-08
-0.00022438 7.08342e-09 -9.06965e-08
-0.000222868 1.01596e-08 -1.19101e-07
-0.00022096 1.31671e-08 -1.4791e-07
-9.87082e-12 -3.80221e-07 4.13041e-09
-2.27273e-11 -7.6754e-07 8.31584e-09
-3.89546e-11 -1.16901e-06 1.2576e-08
-5.90151e-11 -1.5922e-06 1.69334e-08
-8.34521e-11 -2.04514e-06 2.14076e-08
-1.12879e-10 -2.53627e-06 2.60089e-08
-0.000322757 -1.08802e-09 -2.23731e-08
-0.000322054 4.24719e-09 -7.18956e-08
-0.000320643 9.51911e-09 -1.19684e-07
-0.000318519 1.47119e-08 -1.66629e-07
-0.000315672 1.97989e-08 -2.13442e-07
-0.000312091 2.4738e-08 -2.60629e-07
-1.43558e-11 -7.32654e-07 -1.16129e-08
-2.67292e-11 -1.47406e-06 -2.33406e-08
-3.71089e-11 -2.23269e-06 -3.53688e-08
-4.52233e-11 -3.0176e-06 -4.78856e-08
-5.04886e-11 -3.83828e-06 -6.10842e-08
-5.19264e-11 -4.70472e-06 -7.51666e-08
-0.000436626 -1.45161e-09 -2.15548e-08
-0.000435466 6.4908e-09 -9.56989e-08
-0.000433141 1.43183e-08 -1.66543e-07
-0.000429645 2.20002e-08 -2.35347e-07
-0.000424969 2.94893e-08 -3.03102e-07
-0.000419102 3.67148e-08 -3.70494e-07
-1.27351e-11 -1.31274e-06 -6.48384e-08
7.6457e-13 -2.63579e-06 -1.29979e-07
4.16437e-11 -3.97893e-06 -1.95814e-07
1.12044e-10 -5.35269e-06 -2.62748e-07
2.15259e-10 -6.7682e-06 -3.31186e-07
3.55963e-10 -8.23739e-06 -4.01542e-07
-0.000565146 -2.62491e-09 -1.29953e-08
-0.000563382 7.99561e-09 -1.08074e-07
-0.000559852 1.84029e-08 -1.97743e-07
-0.000554552 2.85528e-08 -2.83662e-07
-0.000547479 3.83769e-08 -3.67119e-07
-0.000538625 4.77744e-08 -4.48993e-07
8.1755e-12 -2.18803e-06 -1.96893e-07
1.15717e-10 -4.38669e-06 -3.93965e-07
3.25924e-10 -6.60684e-06 -5.91578e-07
6.44292e-10 -8.85989e-06 -7.90083e-07
1.07883e-09 -1.11581e-05 -9.89828e-07
1.64052e-09 -1.35148e-05 -1.19117e-06
0.00274108 2.26666e-08 -3.92154e-08
0.0027367 -2.29858e-08 3.41774e-07
0.00272791 -6.75497e-08 6.9499e-07
0.00271466 -1.11132e-07 1.0307e-06
0.0026969 -1.53703e-07 1.35735e-06
0.00267452 -1.95059e-07 1.68151e-06
-1.42522e-10 -1.70236e-06 5.11301e-08
-2.0042e-10 -2.07532e-06 6.15688e-08
-2.74393e-10 -2.49595e-06 7.29956e-08
-3.66469e-10 -2.95777e-06 8.50788e-08
-4.76892e-10 -3.44156e-06 9.71071e-08
-6.02537e-10 -3.91208e-06 1.07927e-07
-0.000218635 1.3891e-08 -1.36559e-07
-0.000215898 1.65016e-08 -1.76574e-07
-0.000212723 1.88217e-08 -2.12207e-07
-0.000209087 2.08308e-08 -2.44786e-07
-0.000204955 2.24957e-08 -2.76474e-07
-0.000200264 2.37803e-08 -3.11017e-07
-2.19627e-10 -3.07399e-06 3.10971e-08
-2.96588e-10 -3.66588e-06 3.60549e-08
-3.9011e-10 -4.31701e-06 4.11413e-08
-5.01729e-10 -5.02779e-06 4.62275e-08
-6.32077e-10 -5.79147e-06 5.10906e-08
-7.8027e-10 -6.59308e-06 5.54069e-08
-0.000307743 2.67699e-08 -2.05387e-07
-0.000302641 3.05648e-08 -2.75927e-07
-0.000296744 3.37041e-08 -3.36767e-07
-0.000290019 3.6197e-08 -3.90504e-07
-0.000282413 3.80316e-08 -4.40784e-07
-0.000273848 3.91955e-08 -4.93312e-07
-2.02862e-10 -5.62731e-06 -8.95776e-08
-2.57885e-10 -6.61661e-06 -1.05883e-07
-3.1689e-10 -7.68261e-06 -1.23498e-07
-3.77115e-10 -8.83396e-06 -1.42568e-07
-4.34376e-10 -1.00773e-05 -1.63208e-07
-4.82772e-10 -1.14175e-05 -1.85501e-07
-0.000412007 4.01575e-08 -3.04439e-07
-0.000403703 4.56296e-08 -3.95294e-07
-0.000394143 5.0107e-08 -4.73303e-07
-0.000383287 5.35912e-08 -5.41647e-07
-0.000371081 5.60626e-08 -6.04943e-07
-0.000357443 5.75138e-08 -6.70503e-07
2.80555e-10 -9.77319e-06 -4.72695e-07
4.13457e-10 -1.13897e-05 -5.47958e-07
5.92834e-10 -1.31024e-05 -6.26068e-07
8.33638e-10 -1.49283e-05 -7.07363e-07
1.15531e-09 -1.68866e-05 -7.92153e-07
1.58243e-09 -1.89999e-05 -8.80725e-07
-0.000527956 5.28325e-08 -3.68609e-07
-0.000515507 5.93661e-08 -4.69873e-07
-0.000501233 6.45698e-08 -5.55333e-07
-0.000485106 6.84183e-08 -6.28564e-07
-0.000467083 7.08728e-08 -6.95004e-07
-0.000447101 7.19283e-08 -7.6342e-07
1.9371e-09 -1.59453e-05 -1.39172e-06
2.64946e-09 -1.84665e-05 -1.59726e-06
3.53225e-09 -2.10987e-05 -1.80506e-06
4.62266e-09 -2.38658e-05 -2.01548e-06
5.96806e-09 -2.67968e-05 -2.22888e-06
7.62678e-09 -2.99276e-05 -2.44561e-06
0.00264729 -2.21454e-07 1.26713e-06
0.0026153 -2.46553e-07 1.65246e-06
0.00257824 -2.60209e-07 1.99157e-06
0.00253592 -2.77138e-07 2.26219e-06
0.00248804 -2.88784e-07 2.52549e-06
0.0024343 -2.94817e-07 2.82782e-06
0.00237427 -2.95477e-07 3.24595e-06
-7.32823e-10 -4.32015e-06 1.16645e-07
-8.59157e-10 -4.61633e-06 1.20423e-07
-9.70124e-10 -4.78456e-06 1.19729e-07
-1.07296e-09 -4.90118e-06 1.16396e-07
-1.21063e-09 -5.21831e-06 1.1598e-07
-1.50303e-09 -6.26104e-06 1.27588e-07
-0.000194912 2.63461e-08 -3.34531e-07
-0.000188741 3.15625e-08 -3.73255e-07
-0.000181509 3.11386e-08 -4.7691e-07
-0.00017291 3.02095e-08 -6.11902e-07
-0.000162576 2.885e-08 -7.81223e-07
-0.000150138 2.70484e-08 -9.73892e-07
-0.000135323 2.46806e-08 -1.15996e-06
-0.000264209 4.17303e-08 -5.08283e-07
-0.00034226 6.04048e-08 -6.94579e-07
-0.000425074 7.47946e-08 -7.90484e-07
-1.00449e-09 -7.41268e-06 5.78188e-08
-1.1894e-09 -8.23769e-06 5.94338e-08
-1.38506e-09 -9.0905e-06 5.95027e-08
-1.59898e-09 -1.00754e-05 5.81012e-08
-1.85695e-09 -1.14448e-05 5.54999e-08