# vtk DataFile Version 3.0
vtk output
ASCII
DATASET POLYDATA
POINTS 10504 float
0.188031 0.529925 -0.030373
0.188111 0.51994 -0.0297493
0.198316 0.524875 -0.0296494
0.208503 0.529821 -0.0296042
0.188185 0.50995 -0.0291326
0.198385 0.514892 -0.0290014
0.208567 0.519841 -0.0289395
0.218746 0.524774 -0.0289621
0.228914 0.529722 -0.0290906
0.24927 0.529682 -0.0290228
0.269336 0.529686 -0.0289179
0.329607 0.529519 -0.0289709
0.349605 0.52949 -0.0288679
0.369562 0.529465 -0.0288636
0.389926 0.529431 -0.0289129
0.449962 0.529365 -0.0288628
0.469964 0.529373 -0.0288416
0.489969 0.529381 -0.0289099
0.811968 0.529925 -0.030373
0.811889 0.519939 -0.0297493
0.801684 0.524874 -0.0296491
0.791496 0.52982 -0.0296038
0.811815 0.50995 -0.0291328
0.510031 0.529381 -0.0289098
0.530035 0.529373 -0.0288414
0.550038 0.529365 -0.0288623
0.610074 0.529431 -0.0289118
0.630438 0.529464 -0.028863
0.650395 0.52949 -0.0288674
0.670393 0.529519 -0.0289704
0.730663 0.529686 -0.0289174
0.750729 0.529682 -0.0290224
0.801615 0.514892 -0.0290015
0.791432 0.519841 -0.0289393
0.781253 0.524774 -0.0289614
0.771086 0.529722 -0.02909
0.106496 0.660072 -0.0308687
0.106617 0.650112 -0.0301635
0.106718 0.640145 -0.029505
0.106809 0.630172 -0.0288633
0.167678 0.589805 -0.0321091
0.157387 0.594869 -0.0322508
0.15746 0.584892 -0.0316086
0.147181 0.589949 -0.031599
0.13691 0.595011 -0.0314027
0.167756 0.579846 -0.0314494
0.157529 0.574921 -0.0309859
0.14726 0.579975 -0.0309825
0.137002 0.585034 -0.0307922
0.167816 0.569877 -0.0308232
0.126779 0.590104 -0.0303833
0.157598 0.564954 -0.0303828
0.147338 0.570006 -0.0303871
0.137089 0.57506 -0.0302049
0.167876 0.559914 -0.0302159
0.126875 0.580127 -0.0298071
0.15767 0.554992 -0.0297868
0.147414 0.56004 -0.029813
0.137174 0.565091 -0.0296396
0.167945 0.549953 -0.0296037
0.126969 0.570154 -0.0292553
0.157749 0.545032 -0.0291865
0.1475 0.550078 -0.0292215
0.137262 0.555126 -0.0290781
0.168017 0.539998 -0.0289995
0.198237 0.534847 -0.030307
0.218688 0.53474 -0.029635
0.239071 0.534643 -0.0292878
0.177907 0.594738 -0.032514
0.177975 0.584774 -0.0318365
0.178027 0.574803 -0.0311898
0.178079 0.564837 -0.0305606
0.178135 0.554876 -0.0299431
0.178197 0.544918 -0.0293296
0.187928 0.539893 -0.0310543
0.208433 0.539778 -0.030277
0.228854 0.539673 -0.0297518
0.198158 0.544817 -0.0309727
0.218635 0.544706 -0.0302914
0.23903 0.544608 -0.0299334
0.187847 0.54986 -0.0316821
0.208382 0.549739 -0.0309056
0.228819 0.549633 -0.0303697
0.198094 0.554783 -0.0316079
0.218596 0.554668 -0.0309202
0.239001 0.554568 -0.0305445
0.18777 0.55983 -0.032316
0.208336 0.559704 -0.0315391
0.228801 0.559593 -0.0310009
0.198036 0.564751 -0.032245
0.218562 0.564632 -0.0315534
0.238978 0.564532 -0.0311658
0.1877 0.569801 -0.0329571
0.208293 0.56967 -0.0321787
0.228777 0.569557 -0.0316366
0.197983 0.57472 -0.0328911
0.218532 0.574598 -0.0321977
0.238958 0.574497 -0.031802
0.187632 0.579781 -0.0336024
0.208255 0.579639 -0.0328302
0.228755 0.579523 -0.032285
0.197934 0.584705 -0.0335012
0.218506 0.584568 -0.032855
0.238943 0.584466 -0.0324524
0.187564 0.589742 -0.0342837
0.208221 0.589615 -0.0334917
0.22873 0.5895 -0.0329318
0.197881 0.594672 -0.0342274
0.218477 0.59456 -0.0334946
0.238921 0.594454 -0.0330987
0.167611 0.599796 -0.0327729
0.116587 0.654994 -0.0321349
0.1167 0.645013 -0.0314421
0.116799 0.635031 -0.0307629
0.116879 0.625059 -0.0301058
0.11696 0.615067 -0.0294753
0.147072 0.599932 -0.0322619
0.126674 0.600101 -0.0309887
0.157288 0.604867 -0.0329353
0.136813 0.605019 -0.0320369
0.167545 0.609814 -0.033444
0.146989 0.609937 -0.03292
0.126584 0.610111 -0.0315622
0.157217 0.614879 -0.0336073
0.136706 0.615021 -0.0326813
0.167485 0.61983 -0.0341271
0.146913 0.61996 -0.0335555
0.126459 0.620108 -0.0322428
0.157147 0.624906 -0.0342694
0.13661 0.62504 -0.0333635
0.167403 0.629847 -0.0348219
0.146805 0.629967 -0.0342742
0.126325 0.630114 -0.0329607
0.15707 0.634928 -0.0349829
0.136486 0.635048 -0.03409
0.167335 0.639871 -0.0355485
0.146714 0.639991 -0.034993
0.126208 0.640138 -0.0336683
0.156967 0.644941 -0.0357281
0.13638 0.645074 -0.0348127
0.146592 0.650008 -0.0357467
0.167262 0.649896 -0.0362919
0.126063 0.650152 -0.0344181
0.156876 0.654967 -0.0364855
0.136238 0.655089 -0.0355854
0.167168 0.659918 -0.0370503
0.146484 0.660035 -0.0365117
0.117049 0.60509 -0.028824
0.187488 0.599723 -0.0349966
0.20818 0.599606 -0.0341827
0.228711 0.599504 -0.0335968
0.177846 0.604753 -0.0331966
0.177794 0.614768 -0.0338755
0.177743 0.624786 -0.0345711
0.17767 0.634807 -0.0352788
0.177612 0.64483 -0.0360132
0.177535 0.654854 -0.0367595
0.197819 0.60467 -0.0349636
0.218443 0.604562 -0.0342149
0.238903 0.604473 -0.033782
0.187407 0.609724 -0.0357545
0.208134 0.609606 -0.0349276
0.228686 0.609508 -0.0343239
0.187023 0.659855 -0.0395328
0.197762 0.61468 -0.0357021
0.218414 0.614573 -0.03494
0.238888 0.614484 -0.0344888
0.187335 0.619747 -0.0364848
0.208095 0.619633 -0.035648
0.228668 0.619536 -0.035026
0.197709 0.624706 -0.0363993
0.218388 0.624601 -0.0356573
0.238875 0.624516 -0.0351858
0.208054 0.62966 -0.0363535
0.228649 0.629563 -0.035741
0.187241 0.629762 -0.0372623
0.218359 0.634625 -0.0363875
0.23886 0.634541 -0.0358981
0.19764 0.634724 -0.0371681
0.228621 0.639595 -0.0364599
0.187166 0.63979 -0.0380227
0.208004 0.639682 -0.0371175
0.238842 0.644569 -0.0366319
0.197582 0.644756 -0.0379337
0.218324 0.644652 -0.0371474
0.187088 0.649824 -0.0388095
0.20796 0.649715 -0.0378892
0.228595 0.649623 -0.0372146
0.19752 0.654787 -0.0387293
0.218285 0.654686 -0.0379046
0.238811 0.654602 -0.0373698
0.207908 0.659746 -0.0386618
0.228562 0.659646 -0.0379991
0.0964515 0.665189 -0.0292847
0.106358 0.67006 -0.031464
0.0963437 0.675165 -0.0298363
0.106258 0.680057 -0.0320269
0.0962463 0.685141 -0.0303984
0.10617 0.690061 -0.032593
0.0961508 0.695117 -0.0309675
0.106089 0.700078 -0.0331642
0.0960805 0.705105 -0.0315177
0.106026 0.710111 -0.0337274
0.0960243 0.715103 -0.0320778
0.105975 0.72015 -0.034296
0.0959721 0.72513 -0.0326482
0.105934 0.730177 -0.0348825
0.0861293 0.730101 -0.0306051
0.0959495 0.7352 -0.033134
0.0861223 0.740122 -0.031033
0.105906 0.740229 -0.0353699
0.0959368 0.745279 -0.0335811
0.105896 0.750295 -0.0358934
0.0861011 0.750195 -0.0314475
0.0959273 0.755338 -0.0340996
0.10587 0.760372 -0.0364154
0.086093 0.760295 -0.0318964
0.0959265 0.765403 -0.0346244
0.105867 0.770449 -0.0369568
0.0860991 0.770464 -0.0323496
0.0959232 0.775484 -0.0351395
0.105853 0.780534 -0.0375006
0.0860888 0.780545 -0.0329052
0.0959084 0.785574 -0.0356907
0.0764903 0.785583 -0.0304187
0.0765195 0.775494 -0.0299333
0.0862275 0.720121 -0.0300638
0.0765159 0.765407 -0.0294439
0.0862974 0.710162 -0.0295207
0.0765008 0.755338 -0.0289609
0.0863632 0.700202 -0.0289924
0.125896 0.660153 -0.0351932
0.116453 0.664962 -0.0327917
0.116341 0.674983 -0.0333651
0.116248 0.685007 -0.033949
0.116162 0.69504 -0.0345294
0.116092 0.705081 -0.0351018
0.116043 0.715093 -0.0357013
0.156761 0.664968 -0.0372284
0.136076 0.665086 -0.0363457
0.146376 0.670001 -0.0371757
0.167082 0.669891 -0.0377512
0.125777 0.670121 -0.0358428
0.15669 0.674933 -0.0378826
0.135986 0.675035 -0.0369935
0.167021 0.67987 -0.0383916
0.146298 0.679963 -0.0378407
0.125647 0.680063 -0.0365081
0.177355 0.684819 -0.0387932
0.156627 0.684908 -0.0385483
0.135899 0.684996 -0.0376563
0.166971 0.689858 -0.039058
0.146226 0.689939 -0.0385057
0.125551 0.690027 -0.037168
0.156569 0.694898 -0.0391885
0.177319 0.694818 -0.0394638
0.135821 0.69497 -0.0383139
0.166927 0.699857 -0.0397294
0.146161 0.699927 -0.0391688
0.125463 0.700003 -0.0378197
0.156519 0.704899 -0.0398612
0.177285 0.704825 -0.0401437
0.135751 0.704959 -0.0389338
0.166884 0.709872 -0.0404138
0.146101 0.709932 -0.0398393
0.125346 0.709985 -0.0385111
0.156466 0.714918 -0.040547
0.177245 0.714849 -0.0408435
0.135682 0.714968 -0.0395991
0.146044 0.719961 -0.0404814
0.166838 0.719903 -0.0411097
0.125271 0.719995 -0.0391611
0.177443 0.664844 -0.0375428
0.17739 0.674825 -0.0381947
0.19744 0.664791 -0.0395108
0.218227 0.664686 -0.038709
0.238765 0.664601 -0.0381557
0.186929 0.669826 -0.040305
0.207846 0.669722 -0.0394171
0.228513 0.669635 -0.0387181
0.197386 0.674763 -0.0402209
0.218196 0.674668 -0.0394041
0.238743 0.674594 -0.03883
0.186874 0.679809 -0.0409696
0.186831 0.68982 -0.0416195
0.186747 0.709886 -0.0429864
0.186702 0.719954 -0.0436713
0.186777 0.699836 -0.0423556
0.207809 0.679706 -0.0401172
0.228494 0.67963 -0.0393983
0.197338 0.684755 -0.0409259
0.218171 0.684666 -0.0400939
0.238724 0.684612 -0.0394763
0.207777 0.689714 -0.0408136
0.228479 0.689644 -0.0400763
0.1973 0.694769 -0.041611
0.218154 0.694682 -0.0407723
0.238719 0.694636 -0.0401338
0.207752 0.69974 -0.0414958
0.22847 0.699673 -0.0407458
0.19726 0.704796 -0.0423392
0.218139 0.704718 -0.0414528
0.238714 0.704675 -0.0407988
0.207728 0.709792 -0.042182
0.228461 0.709723 -0.0414259
0.197226 0.714853 -0.0430273
0.218123 0.714775 -0.0421469
0.238707 0.714734 -0.0414873
0.207705 0.719859 -0.0428757
0.228449 0.719789 -0.0421248
0.115987 0.725113 -0.0362935
0.115959 0.735159 -0.0368755
0.115914 0.745239 -0.0373745
0.115897 0.755316 -0.0379266
0.115896 0.765388 -0.0384662
0.115881 0.775484 -0.0390219
0.115872 0.785595 -0.0396416
0.156417 0.724951 -0.0412062
0.177206 0.724886 -0.0415236
0.13562 0.724992 -0.0402409
0.145999 0.729996 -0.041093
0.166802 0.729943 -0.0417463
0.125213 0.730016 -0.0397546
0.156407 0.734998 -0.0417279
0.177198 0.734953 -0.0420668
0.135604 0.73501 -0.0407362
0.16682 0.740028 -0.0422117
0.146011 0.74003 -0.0415717
0.125225 0.740018 -0.0401687
0.177218 0.745069 -0.0425919
0.156418 0.745082 -0.0422139
0.135609 0.745056 -0.041196
0.166832 0.750146 -0.0427417
0.146015 0.750115 -0.0420766
0.125218 0.750068 -0.0406525
0.177236 0.755215 -0.0431524
0.156435 0.755178 -0.0427814
0.135612 0.755132 -0.0417518
0.166852 0.760314 -0.0433255
0.14603 0.760255 -0.0426227
0.125257 0.760182 -0.0411429
0.17726 0.765419 -0.043774
0.156457 0.765352 -0.0433561
0.135629 0.765282 -0.042291
0.166872 0.770542 -0.0439573
[...]
POINT_DATA 10504
VECTORS alpha float
3.35356e-06 -1.86875e-08 1.6858e-07
3.18336e-06 -1.68742e-08 1.65474e-07
-5.42481e-08 1.75101e-05 -1.1848e-06
3.50241e-06 -1.79755e-08 1.22796e-07
3.11857e-06 -1.58602e-08 1.67068e-07
-5.07914e-08 1.75866e-05 -1.17997e-06
3.32439e-06 -1.63649e-08 1.19279e-07
-1.46784e-08 1.64273e-05 -1.10699e-06
3.64597e-06 -1.68505e-08 6.26519e-08
3.77811e-06 -1.53097e-08 2.04343e-08
3.86692e-06 -1.22645e-08 4.69864e-08
4.16903e-06 -6.2036e-09 3.23776e-08
4.24318e-06 -5.77994e-09 1.11985e-08
4.30697e-06 -5.23482e-09 -9.39654e-09
4.38117e-06 -2.10976e-09 3.41441e-08
4.50589e-06 1.61416e-09 1.51065e-08
4.52651e-06 1.75358e-09 -5.41208e-09
4.53733e-06 1.89965e-09 -2.56243e-08
3.35277e-06 1.86941e-08 -1.68616e-07
3.18183e-06 1.68786e-08 -1.65441e-07
-5.41744e-08 -1.75101e-05 1.18486e-06
3.50163e-06 1.79846e-08 -1.22823e-07
3.11906e-06 1.58778e-08 -1.67126e-07
4.53729e-06 -1.91143e-09 2.56704e-08
4.52643e-06 -1.77204e-09 5.46008e-09
4.50576e-06 -1.63912e-09 -1.50582e-08
4.38088e-06 2.08776e-09 -3.40954e-08
4.30662e-06 5.25845e-09 9.39206e-09
4.24277e-06 5.79369e-09 -1.12009e-08
4.16856e-06 6.20779e-09 -3.23773e-08
3.86628e-06 1.22627e-08 -4.6991e-08
3.77741e-06 1.53269e-08 -2.04213e-08
-5.07488e-08 -1.75866e-05 1.17966e-06
3.32293e-06 1.63723e-08 -1.19249e-07
-1.4615e-08 -1.64273e-05 1.10723e-06
3.64522e-06 1.68622e-08 -6.2673e-08
3.92037e-06 -2.34034e-08 -6.48196e-07
3.73275e-06 -2.35087e-08 -6.02221e-07
3.60141e-06 -2.34799e-08 -5.67723e-07
3.48603e-06 -2.38233e-08 -5.3669e-07
3.68033e-06 -2.09037e-08 -3.2788e-08
-6.14964e-08 1.61699e-05 -1.19718e-06
-5.33648e-08 1.62512e-05 -1.17873e-06
3.49438e-06 -1.95305e-08 -1.31933e-07
-1.09282e-07 1.44646e-05 -1.06123e-06
3.58715e-06 -2.04495e-08 -2.90079e-08
-4.88171e-08 1.63322e-05 -1.16053e-06
3.40451e-06 -1.9022e-08 -1.2339e-07
-1.02277e-07 1.45425e-05 -1.04304e-06
3.50145e-06 -1.9986e-08 -2.39981e-08
3.30592e-06 -1.74241e-08 -2.47006e-07
-4.80213e-08 1.64124e-05 -1.14277e-06
3.32111e-06 -1.85355e-08 -1.14949e-07
-9.85101e-08 1.46198e-05 -1.02522e-06
3.41733e-06 -1.94979e-08 -1.88302e-08
3.21938e-06 -1.69176e-08 -2.34127e-07
-5.17818e-08 1.64919e-05 -1.12996e-06
3.23987e-06 -1.80255e-08 -1.06425e-07
-9.76545e-08 1.46963e-05 -1.00693e-06
3.33687e-06 -1.89489e-08 -1.61512e-08
3.13909e-06 -1.64381e-08 -2.21453e-07
-5.96814e-08 1.65705e-05 -1.12509e-06
3.16251e-06 -1.7508e-08 -1.005e-07
-1.00581e-07 1.47718e-05 -9.95335e-07
3.25663e-06 -1.84306e-08 -1.33453e-08
-5.27681e-08 1.74265e-05 -1.1915e-06
-1.28038e-08 1.63475e-05 -1.11034e-06
2.01319e-08 1.47342e-05 -9.93928e-07
-5.76034e-09 1.70839e-05 -1.26572e-06
-1.0312e-08 1.7169e-05 -1.25106e-06
-6.57255e-09 1.72518e-05 -1.23348e-06
-7.19061e-09 1.7334e-05 -1.21733e-06
-1.2408e-08 1.74153e-05 -1.20453e-06
-2.16659e-08 1.74957e-05 -1.19796e-06
3.43938e-06 -2.05953e-08 1.74225e-07
3.59019e-06 -1.96748e-08 1.277e-07
3.73485e-06 -1.8183e-08 6.52166e-08
-4.73868e-08 1.73439e-05 -1.20168e-06
-7.18391e-09 1.62689e-05 -1.11971e-06
2.56583e-08 1.4661e-05 -1.00128e-06
3.52679e-06 -2.14659e-08 1.78034e-07
3.67901e-06 -2.03526e-08 1.31911e-07
3.82487e-06 -1.86246e-08 6.97772e-08
-4.02941e-08 1.72624e-05 -1.2042e-06
-7.92936e-10 1.61906e-05 -1.12427e-06
3.13205e-08 1.45878e-05 -1.00669e-06
3.61435e-06 -2.23238e-08 1.82355e-07
3.7672e-06 -2.10112e-08 1.36481e-07
3.91432e-06 -1.91329e-08 7.68554e-08
-3.48544e-08 1.71804e-05 -1.20855e-06
4.10511e-09 1.61121e-05 -1.13079e-06
3.55249e-08 1.45141e-05 -1.01427e-06
3.70622e-06 -2.30969e-08 1.87423e-07
3.85903e-06 -2.16443e-08 1.40676e-07
4.00582e-06 -1.94516e-08 8.05245e-08
-3.10532e-08 1.70984e-05 -1.21452e-06
7.31176e-09 1.6033e-05 -1.13844e-06
3.82958e-08 1.44399e-05 -1.0226e-06
3.79911e-06 -2.37072e-08 1.92674e-07
3.95084e-06 -2.21853e-08 1.44957e-07
4.09602e-06 -1.97084e-08 8.42878e-08
-3.01487e-08 1.70204e-05 -1.21776e-06
8.67948e-09 1.59545e-05 -1.14831e-06
3.91953e-08 1.43656e-05 -1.03332e-06
3.89828e-06 -2.4281e-08 1.97608e-07
4.04826e-06 -2.25779e-08 1.49843e-07
4.19007e-06 -1.97252e-08 8.60966e-08
-2.90056e-08 1.69373e-05 -1.23254e-06
6.98205e-09 1.58803e-05 -1.15371e-06
3.67644e-08 1.4295e-05 -1.04033e-06
3.78203e-06 -2.11046e-08 -3.6742e-08
-8.74518e-08 1.24357e-05 -8.2554e-07
-7.90787e-08 1.25384e-05 -8.26699e-07
-7.13114e-08 1.26329e-05 -8.23779e-07
-6.63808e-08 1.27206e-05 -8.17393e-07
-6.13809e-08 1.28059e-05 -8.11134e-07
3.59469e-06 -1.96528e-08 -1.38627e-07
3.40082e-06 -1.76294e-08 -2.59616e-07
-3.19339e-08 1.60841e-05 -1.18584e-06
-9.3465e-08 1.43856e-05 -1.05766e-06
3.89626e-06 -2.10304e-08 -3.91382e-08
3.70522e-06 -1.98064e-08 -1.45897e-07
3.50481e-06 -1.76867e-08 -2.74468e-07
-2.63767e-08 1.59987e-05 -1.18243e-06
-8.45747e-08 1.43048e-05 -1.05033e-06
4.01902e-06 -2.13499e-08 -4.18601e-08
3.82167e-06 -1.99437e-08 -1.54988e-07
3.61681e-06 -1.80906e-08 -2.86291e-07
-2.8426e-08 1.59117e-05 -1.17384e-06
-8.14325e-08 1.42169e-05 -1.04666e-06
4.16785e-06 -2.16996e-08 -4.49731e-08
3.96325e-06 -2.04762e-08 -1.61889e-07
3.74826e-06 -1.86899e-08 -2.98582e-07
-3.02393e-08 1.58151e-05 -1.17707e-06
-7.35615e-08 1.41212e-05 -1.04331e-06
4.3254e-06 -2.28925e-08 -4.79203e-08
4.1096e-06 -2.15209e-08 -1.70582e-07
3.88184e-06 -1.96733e-08 -3.13176e-07
-2.54146e-08 1.57111e-05 -1.18163e-06
-7.76867e-08 1.40182e-05 -1.04474e-06
4.28184e-06 -2.30695e-08 -1.79148e-07
4.51152e-06 -2.49062e-08 -5.15253e-08
4.03718e-06 -2.1145e-08 -3.28738e-07
-3.62366e-08 1.55972e-05 -1.19318e-06
-7.66184e-08 1.39054e-05 -1.0486e-06
4.77866e-06 -2.74939e-08 -5.84808e-08
4.52628e-06 -2.58129e-08 -1.92979e-07
-6.4245e-08 1.28871e-05 -8.0906e-07
4.00722e-06 -2.44663e-08 2.03473e-07
4.15486e-06 -2.25625e-08 1.55373e-07
4.29322e-06 -1.94039e-08 9.14674e-08
1.04534e-08 1.69993e-05 -1.25479e-06
1.76319e-08 1.69121e-05 -1.24913e-06
2.04068e-08 1.68214e-05 -1.24895e-06
2.587e-08 1.67273e-05 -1.24309e-06
1.84303e-08 1.66242e-05 -1.2552e-06
5.12835e-09 1.65152e-05 -1.26066e-06
-1.54498e-08 1.68561e-05 -1.2279e-06
1.77227e-08 1.58014e-05 -1.1501e-06
4.47984e-08 1.42208e-05 -1.0341e-06
4.12985e-06 -2.4201e-08 2.11224e-07
4.27574e-06 -2.21946e-08 1.62587e-07
4.41093e-06 -1.87294e-08 9.83429e-08
5.10619e-06 -2.79713e-08 2.71603e-07
-9.85794e-09 1.6774e-05 -1.22904e-06
2.12135e-08 1.57224e-05 -1.15185e-06
4.62536e-08 1.41459e-05 -1.03643e-06
4.26253e-06 -2.42862e-08 2.19795e-07
4.40744e-06 -2.21913e-08 1.70712e-07
4.53977e-06 -1.84168e-08 1.05876e-07
-6.61444e-09 1.66924e-05 -1.22505e-06
2.32503e-08 1.56423e-05 -1.15106e-06
4.62782e-08 1.40709e-05 -1.03752e-06
4.56983e-06 -2.21709e-08 1.76264e-07
4.70197e-06 -1.84789e-08 1.14015e-07
4.42788e-06 -2.44833e-08 2.35823e-07
2.32903e-08 1.55579e-05 -1.15328e-06
4.44569e-08 1.39927e-05 -1.04181e-06
-2.48586e-10 1.66024e-05 -1.22688e-06
4.8791e-06 -1.84039e-08 1.21081e-07
4.60185e-06 -2.51897e-08 2.47759e-07
4.74934e-06 -2.25174e-08 1.91056e-07
4.08809e-08 1.39109e-05 -1.04785e-06
-4.23871e-10 1.65068e-05 -1.22956e-06
2.47925e-08 1.54675e-05 -1.1612e-06
4.80986e-06 -2.64455e-08 2.62134e-07
4.96463e-06 -2.38093e-08 2.03904e-07
5.09941e-06 -1.91389e-08 1.35766e-07
-2.49436e-09 1.64013e-05 -1.23389e-06
1.93698e-08 1.53731e-05 -1.16545e-06
3.71783e-08 1.38246e-05 -1.05744e-06
5.27652e-06 -2.52151e-08 2.16757e-07
5.42162e-06 -2.11438e-08 1.49386e-07
-6.81505e-08 1.30416e-05 -8.0848e-07
4.06631e-06 -2.33476e-08 -6.84465e-07
-5.66129e-08 1.2917e-05 -8.0141e-07
4.18641e-06 -2.14228e-08 -7.18163e-07
-4.74162e-08 1.27876e-05 -7.93777e-07
4.30884e-06 -1.93517e-08 -7.53017e-07
-4.38782e-08 1.26596e-05 -7.80078e-07
4.40756e-06 -1.74022e-08 -7.84107e-07
-3.36078e-08 1.2522e-05 -7.68688e-07
4.48073e-06 -1.52073e-08 -8.10363e-07
-2.24354e-08 1.23845e-05 -7.53104e-07
4.50012e-06 -1.30528e-08 -8.26389e-07
-1.13039e-08 1.22517e-05 -7.30221e-07
4.4881e-06 -1.2112e-08 -8.36078e-07
4.12186e-06 -1.7193e-08 -1.05308e-06
1.23891e-09 1.21378e-05 -7.08403e-07
4.08124e-06 -1.4034e-08 -1.05459e-06
4.4095e-06 -9.83995e-09 -8.31076e-07
2.33751e-08 1.20339e-05 -7.00214e-07
4.32276e-06 -8.62166e-09 -8.23878e-07
4.04234e-06 -1.10766e-08 -1.05664e-06
3.32613e-08 1.1954e-05 -6.857e-07
4.20036e-06 -6.5033e-09 -8.08902e-07
3.98675e-06 -8.29953e-09 -1.0543e-06
4.34707e-08 1.19103e-05 -6.6639e-07
4.12329e-06 -6.25056e-09 -8.00863e-07
3.97968e-06 -5.59841e-09 -1.06477e-06
5.82174e-08 1.19066e-05 -6.41863e-07
4.25223e-06 -6.439e-09 -8.32215e-07
4.14395e-06 -5.72662e-09 -1.12057e-06
7.30128e-08 1.19229e-05 -6.14194e-07
7.97367e-08 1.77532e-05 -8.61463e-07
4.92007e-08 1.77778e-05 -8.95094e-07
4.11788e-06 -1.9783e-08 -1.03586e-06
2.77397e-08 1.78016e-05 -9.21728e-07
4.09266e-06 -2.10502e-08 -1.01363e-06
1.32381e-08 1.78517e-05 -9.37443e-07
4.0275e-06 -2.22244e-08 -9.81463e-07
4.25845e-06 -2.31506e-08 -3.50422e-07
-7.58171e-08 1.23192e-05 -8.15109e-07
-5.84621e-08 1.21951e-05 -8.13138e-07
-4.56516e-08 1.20622e-05 -8.09023e-07
-2.99789e-08 1.19242e-05 -7.99345e-07
-1.52579e-08 1.17795e-05 -7.89605e-07
-4.47806e-09 1.16252e-05 -7.75927e-07
-2.59041e-08 1.54725e-05 -1.18027e-06
-5.63974e-08 1.37815e-05 -1.04376e-06
4.72654e-06 -2.48223e-08 -2.06774e-07
5.0051e-06 -2.73367e-08 -6.20557e-08
4.43399e-06 -2.24802e-08 -3.72082e-07
-1.44259e-08 1.53488e-05 -1.16748e-06
-4.46923e-08 1.36602e-05 -1.02717e-06
5.19672e-06 -2.42274e-08 -6.50971e-08
4.89564e-06 -2.2199e-08 -2.14697e-07
4.58291e-06 -1.92118e-08 -3.85813e-07
2.42025e-08 1.61411e-05 -1.25058e-06
-9.86182e-09 1.5216e-05 -1.16577e-06
-3.87979e-08 1.35303e-05 -1.0207e-06
5.40473e-06 -2.24361e-08 -6.72885e-08
5.074e-06 -1.99659e-08 -2.23941e-07
4.73482e-06 -1.66736e-08 -4.01692e-07
-9.42648e-09 1.50747e-05 -1.15767e-06
2.18406e-08 1.59972e-05 -1.25736e-06
-3.52297e-08 1.33893e-05 -1.01512e-06
5.58124e-06 -2.08533e-08 -7.10759e-08
5.2218e-06 -1.78933e-08 -2.33716e-07
4.85875e-06 -1.41555e-08 -4.16911e-07
-9.1915e-09 1.49164e-05 -1.15886e-06
1.886e-08 1.58384e-05 -1.26328e-06
-3.20144e-08 1.3241e-05 -1.00287e-06
5.71674e-06 -1.96887e-08 -7.57595e-08
5.33199e-06 -1.61895e-08 -2.42783e-07
4.95322e-06 -1.21143e-08 -4.27347e-07
-8.36025e-09 1.47468e-05 -1.15041e-06
1.55704e-08 1.56662e-05 -1.25726e-06
-2.74611e-08 1.30804e-05 -9.92202e-07
5.35922e-06 -1.35217e-08 -2.51591e-07
5.75997e-06 -1.87018e-08 -8.14593e-08
4.97529e-06 -1.00648e-08 -4.36068e-07
8.5152e-09 1.63909e-05 -1.26544e-06
2.01845e-08 1.62686e-05 -1.25719e-06
2.45299e-09 1.62873e-05 -1.23155e-06
2.3934e-08 1.52657e-05 -1.16689e-06
4.04498e-08 1.37289e-05 -1.05982e-06
5.36703e-06 -2.75909e-08 2.88399e-07
5.55483e-06 -2.4606e-08 2.32672e-07
5.71275e-06 -1.92899e-08 1.61324e-07
8.59892e-09 1.61857e-05 -1.22196e-06
2.87926e-08 1.51717e-05 -1.15975e-06
4.40573e-08 1.36445e-05 -1.05512e-06
5.59001e-06 -2.56103e-08 2.99512e-07
5.83696e-06 -2.41202e-08 3.11754e-07
6.22906e-06 -2.30083e-08 3.30832e-07
6.30255e-06 -2.22231e-08 3.29348e-07
6.05653e-06 -2.3756e-08 3.29221e-07
5.79886e-06 -2.25009e-08 2.47501e-07
5.97245e-06 -1.69075e-08 1.75912e-07
1.25021e-08 1.60722e-05 -1.21924e-06
3.11107e-08 1.50672e-05 -1.15872e-06
4.3713e-08 1.35556e-05 -1.05307e-06
6.07567e-06 -2.09787e-08 2.64176e-07
6.27399e-06 -1.52598e-08 1.92013e-07
1.55388e-08 1.5942e-05 -1.21835e-06
3.16715e-08 1.49469e-05 -1.16049e-06
4.24678e-08 1.34484e-05 -1.0582e-06
6.32455e-06 -1.9664e-08 2.76841e-07
6.55252e-06 -1.40997e-08 2.06383e-07
1.85791e-08 1.57894e-05 -1.22176e-06
3.16404e-08 1.48088e-05 -1.16499e-06
4.05152e-08 1.33245e-05 -1.0658e-06
6.53152e-06 -1.90457e-08 2.85768e-07
6.79181e-06 -1.37722e-08 2.17393e-07
2.1354e-08 1.56219e-05 -1.21911e-06
3.13874e-08 1.46517e-05 -1.1655e-06
3.78367e-08 1.31825e-05 -1.06968e-06
6.63319e-06 -1.88074e-08 2.87219e-07
6.92509e-06 -1.40567e-08 2.21141e-07
1.31182e-08 1.14737e-05 -7.511e-07
2.42224e-08 1.13345e-05 -7.20094e-07
4.88217e-08 1.12113e-05 -6.977e-07
5.85522e-08 1.11144e-05 -6.69475e-07
6.75221e-08 1.10551e-05 -6.47304e-07
8.06656e-08 1.10444e-05 -6.2762e-07
8.86017e-08 1.10622e-05 -6.07044e-07
-2.01657e-10 1.45688e-05 -1.13331e-06
2.03896e-08 1.54816e-05 -1.23968e-06
-1.68323e-08 1.2916e-05 -9.75961e-07
5.33051e-06 -1.15475e-08 -2.57087e-07
5.73506e-06 -1.7397e-08 -8.75228e-08
4.95238e-06 -7.44637e-09 -4.41288e-07
2.28027e-08 1.43936e-05 -1.10292e-06
4.12539e-08 1.52926e-05 -1.2077e-06
6.84395e-09 1.27606e-05 -9.46634e-07
5.57119e-06 -8.28349e-09 -9.08401e-08
5.18625e-06 -3.608e-09 -2.53598e-07
4.83611e-06 1.49136e-09 -4.36938e-07
4.96877e-08 1.51189e-05 -1.19372e-06
4.52787e-08 1.4242e-05 -1.08396e-06
2.99931e-08 1.26342e-05 -9.28497e-07
5.34811e-06 -2.16079e-09 -9.26378e-08
5.00137e-06 2.5835e-09 -2.48913e-07
4.69859e-06 7.84725e-09 -4.28118e-07
6.59121e-08 1.49626e-05 -1.17411e-06
5.40343e-08 1.4107e-05 -1.07376e-06
3.96775e-08 1.25294e-05 -9.23449e-07
5.01099e-06 1.1555e-09 -9.44544e-08
4.73029e-06 6.05275e-09 -2.41211e-07
4.49846e-06 1.12284e-08 -4.16335e-07
6.83161e-08 1.48343e-05 -1.15577e-06
6.09082e-08 1.40104e-05 -1.058e-06
4.95216e-08 1.24653e-05 -9.11965e-07
4.6672e-06 2.14179e-09 -9.72652e-08
4.47531e-06 7.27174e-09 -2.35225e-07
4.33512e-06 1.25592e-08 -4.05707e-07
6.19197e-08 1.39614e-05 -1.04642e-06
6.90576e-08 1.47442e-05 -1.1268e-06
5.92353e-08 1.24456e-05 -8.95595e-07
4.58035e-06 2.73092e-10 -1.0682e-07
4.47309e-06 5.84781e-09 -2.43706e-07
4.41136e-06 1.24297e-08 -4.17136e-07
7.19463e-08 1.3938e-05 -9.95011e-07
7.58471e-08 1.46863e-05 -1.05593e-06
6.30307e-08 1.24626e-05 -8.8779e-07
2.74769e-08 1.54379e-05 -1.21107e-06
3.36037e-08 1.44756e-05 -1.15948e-06
3.66177e-08 1.30207e-05 -1.06722e-06
6.29462e-06 -2.10629e-08 3.19302e-07
6.64968e-06 -1.81689e-08 2.84294e-07
6.96922e-06 -1.41482e-08 2.2015e-07
3.89442e-08 1.52614e-05 -1.18772e-06
3.96498e-08 1.43003e-05 -1.13947e-06
3.76415e-08 1.28538e-05 -1.05327e-06
6.12702e-06 -1.40105e-08 3.09694e-07
5.88168e-06 -1.25145e-08 3.11708e-07
5.48761e-06 -1.22614e-08 2.9259e-07
5.05659e-06 -1.41993e-08 2.66534e-07
4.88537e-06 -1.88402e-08 2.61842e-07
6.4901e-06 -1.17716e-08 2.85362e-07
6.82473e-06 -5.96551e-09 2.20505e-07
4.44257e-08 1.51013e-05 -1.17642e-06
4.15004e-08 1.41331e-05 -1.1303e-06
3.58374e-08 1.26878e-05 -1.05011e-06
6.5649e-06 -1.59443e-09 2.17099e-07
6.23015e-06 -7.77582e-09 2.81179e-07
5.16333e-08 1.49464e-05 -1.17015e-06
4.65538e-08 1.3964e-05 -1.12155e-06
3.79789e-08 1.25142e-05 -1.04419e-06
5.79846e-06 -6.68461e-09 2.64647e-07
6.11304e-06 1.62562e-10 2.03433e-07
5.51881e-08 1.48037e-05 -1.16186e-06
4.7899e-08 1.38005e-05 -1.10881e-06
3.62231e-08 1.23397e-05 -1.03386e-06
5.3037e-06 -6.87979e-09 2.36368e-07
5.57325e-06 -1.14909e-09 1.83138e-07
6.62273e-08 1.46742e-05 -1.11207e-06
4.90346e-08 1.36552e-05 -1.09064e-06
3.38829e-08 1.21765e-05 -1.01807e-06
5.05111e-06 -1.26259e-08 2.30436e-07
5.25049e-06 -5.52227e-09 1.70591e-07
8.60931e-08 1.4568e-05 -1.01516e-06
6.2673e-08 1.35205e-05 -9.9178e-07
4.1171e-08 1.20243e-05 -9.2892e-07
6.45345e-09 1.29492e-05 -9.09815e-07
1.27896e-08 1.12496e-05 -7.89196e-07
3.87703e-06 -1.71397e-08 1.772e-08
3.96611e-06 -1.35138e-08 4.98071e-08
4.07376e-06 -1.23591e-08 2.01043e-08
9.06864e-09 1.28893e-05 -9.21374e-07
1.54311e-08 1.11945e-05 -7.96431e-07
3.9702e-06 -1.76728e-08 2.28144e-08
4.05873e-06 -1.80539e-08 2.83974e-08
4.14978e-06 -1.83154e-08 3.23724e-08
4.23798e-06 -1.84715e-08 3.59062e-08
4.32899e-06 -1.85223e-08 4.1624e-08
4.06473e-06 -1.38062e-08 5.10595e-08
1.32118e-08 1.2829e-05 -9.27381e-07
1.88609e-08 1.11388e-05 -8.00195e-07
4.16016e-06 -1.41935e-08 5.25207e-08
1.68801e-08 1.27664e-05 -9.33484e-07
2.18322e-08 1.10809e-05 -8.03877e-07
4.25768e-06 -1.46745e-08 5.41775e-08
2.01459e-08 1.27015e-05 -9.38997e-07
4.35096e-06 -1.52275e-08 5.62638e-08
2.28658e-08 1.26351e-05 -9.4419e-07
2.64391e-08 1.09588e-05 -8.10405e-07
4.44708e-06 -1.57952e-08 5.91011e-08
4.55817e-06 -1.29268e-08 2.88952e-08
2.40249e-08 1.257e-05 -9.44362e-07
2.83564e-08 1.08964e-05 -8.1282e-07
2.96867e-08 9.42508e-06 -6.95957e-07
2.97487e-08 9.48195e-06 -6.96057e-07
4.46269e-06 -1.27445e-08 2.73519e-08
2.60662e-08 1.10192e-05 -8.08339e-07
2.83737e-08 9.53895e-06 -6.93814e-07
4.36973e-06 -1.25923e-08 2.52312e-08
2.64026e-08 9.59434e-06 -6.92141e-07
4.27104e-06 -1.24829e-08 2.35697e-08
2.41221e-08 9.64747e-06 -6.90167e-07
4.17408e-06 -1.2432e-08 2.20946e-08
2.13603e-08 9.69826e-06 -6.88088e-07
1.87613e-08 9.74846e-06 -6.84249e-07
1.34269e-08 8.46463e-06 -6.05607e-07
1.21665e-08 7.35547e-06 -5.26141e-07
1.09026e-08 6.36004e-06 -4.55204e-07
4.27944e-06 -7.12425e-09 3.32433e-08
4.35626e-06 -6.45822e-09 1.13233e-08
4.42232e-06 -5.6565e-09 -9.99254e-09
4.66099e-06 -9.77221e-09 6.09022e-11
4.56639e-06 -1.00827e-08 -1.98964e-09
4.47355e-06 -1.03199e-08 -4.2673e-09
4.37359e-06 -1.05712e-08 -5.9963e-09
4.27508e-06 -1.08524e-08 -7.60743e-09
1.53603e-08 8.42015e-06 -6.08624e-07
1.36576e-08 7.31592e-06 -5.2745e-07
1.20136e-08 6.32544e-06 -4.55211e-07
4.389e-06 -7.06032e-09 3.31122e-08
4.46871e-06 -6.15105e-09 1.09593e-08
4.53731e-06 -5.09668e-09 -1.05401e-08
1.78502e-08 8.37468e-06 -6.09593e-07
1.54171e-08 7.27531e-06 -5.27568e-07
1.31853e-08 6.28979e-06 -4.54716e-07
4.49371e-06 -7.09177e-09 3.3223e-08
4.57602e-06 -5.91602e-09 1.08601e-08
4.647e-06 -4.58491e-09 -1.08148e-08
1.99495e-08 8.32695e-06 -6.10725e-07
1.68245e-08 7.23254e-06 -5.27732e-07
1.40399e-08 6.25213e-06 -4.54211e-07
4.59987e-06 -7.17535e-09 3.34954e-08
4.68475e-06 -5.70981e-09 1.08611e-08
4.75819e-06 -4.07703e-09 -1.10713e-08
2.16876e-08 8.27689e-06 -6.11561e-07
1.79324e-08 7.1875e-06 -5.27571e-07
1.4648e-08 6.21231e-06 -4.53381e-07
4.69784e-06 -7.30922e-09 3.41916e-08
4.78437e-06 -5.51896e-09 1.13563e-08
4.85954e-06 -3.54937e-09 -1.07526e-08
2.30739e-08 8.22509e-06 -6.12278e-07
1.8717e-08 7.14067e-06 -5.27384e-07
1.49644e-08 6.17071e-06 -4.5261e-07
4.79649e-06 -7.44186e-09 3.56357e-08
4.88412e-06 -5.29738e-09 1.24454e-08
4.96065e-06 -2.96064e-09 -9.9957e-09
2.33387e-08 8.17362e-06 -6.09142e-07
1.93271e-08 7.09266e-06 -5.26596e-07
1.51463e-08 6.12783e-06 -4.51278e-07
4.17204e-06 -1.11925e-08 -9.07515e-09
4.4277e-06 -1.8267e-08 4.60988e-08
4.54804e-06 -1.63137e-08 6.23673e-08
4.65596e-06 -1.30659e-08 3.1958e-08
4.54114e-06 -1.78388e-08 5.38379e-08
4.66565e-06 -1.75325e-08 6.37258e-08
4.82485e-06 -1.7649e-08 7.42193e-08
5.00097e-06 -1.78961e-08 8.47651e-08
5.22008e-06 -1.82209e-08 9.85125e-08
5.54768e-06 -2.07406e-08 1.10589e-07
2.82614e-08 1.25016e-05 -9.41227e-07
3.06778e-08 1.08333e-05 -8.08074e-07
3.05016e-08 9.36659e-06 -6.92335e-07
4.66333e-06 -1.66917e-08 6.60233e-08
4.7677e-06 -1.31086e-08 3.55728e-08
3.09943e-08 1.24321e-05 -9.44175e-07
3.19228e-08 1.07688e-05 -8.10762e-07
3.06359e-08 9.30679e-06 -6.94755e-07
4.78926e-06 -1.72634e-08 7.01887e-08
4.88927e-06 -1.33142e-08 3.95905e-08
3.36729e-08 1.23621e-05 -9.43377e-07
3.30523e-08 1.07043e-05 -8.10669e-07
3.0606e-08 9.24716e-06 -6.94967e-07
4.95137e-06 -1.79791e-08 7.42605e-08
5.04665e-06 -1.37937e-08 4.43599e-08
3.01527e-08 9.18616e-06 -6.9656e-07
3.81089e-08 1.22887e-05 -9.46427e-07
3.43068e-08 1.06387e-05 -8.12004e-07
5.13267e-06 -1.90086e-08 8.19136e-08
5.22405e-06 -1.41885e-08 5.12741e-08
3.84454e-08 1.22149e-05 -9.46326e-07
3.42749e-08 1.057e-05 -8.14776e-07
2.94284e-08 9.12465e-06 -6.9907e-07
5.36046e-06 -2.00396e-08 8.7213e-08
5.44902e-06 -1.535e-08 5.68576e-08
3.91177e-08 1.21321e-05 -9.50435e-07
3.26974e-08 1.04993e-05 -8.16237e-07
2.69959e-08 9.06155e-06 -7.00669e-07
5.69912e-06 -2.2377e-08 9.55161e-08
5.78841e-06 -1.68755e-08 6.3742e-08
4.75591e-06 -9.43513e-09 3.07218e-09
4.89533e-06 -7.61455e-09 3.66145e-08
4.98161e-06 -5.0657e-09 1.42347e-08
5.05807e-06 -2.40442e-09 -8.37328e-09
4.86431e-06 -9.06958e-09 6.63801e-09
4.98154e-06 -8.91971e-09 1.0811e-08
5.13441e-06 -9.01341e-09 1.55845e-08
5.30718e-06 -9.03603e-09 2.10243e-08
5.52771e-06 -9.78582e-09 2.86e-08
5.86459e-06 -1.09745e-08 3.55827e-08
2.55707e-08 8.11968e-06 -6.06227e-07
2.00051e-08 7.04457e-06 -5.21132e-07
1.57844e-08 6.08376e-06 -4.47603e-07
5.00657e-06 -7.50196e-09 3.9639e-08
5.09193e-06 -4.7308e-09 1.69199e-08
5.16808e-06 -1.82304e-09 -5.59168e-09
2.6731e-08 8.06481e-06 -6.06799e-07
2.04859e-08 6.9942e-06 -5.21245e-07
1.57304e-08 6.03814e-06 -4.47727e-07
5.12582e-06 -7.48149e-09 4.31963e-08
5.2092e-06 -4.48771e-09 2.00157e-08