# vtk DataFile Version 3.0
vtk output
ASCII
DATASET POLYDATA
POINTS 8787 float
0.188823 0.439928 -0.0249698
0.198959 0.444887 -0.0249609
0.188863 0.42992 -0.0243927
0.219237 0.444793 -0.0244006
0.198995 0.434879 -0.0243572
0.209122 0.439831 -0.0243389
0.239474 0.444706 -0.0241295
0.259618 0.444883 -0.0241622
0.319803 0.444723 -0.0242238
0.339797 0.444688 -0.024102
0.380022 0.444711 -0.0241959
0.44002 0.444647 -0.0241408
0.46001 0.444639 -0.0240781
0.48 0.444634 -0.0240866
0.188904 0.419916 -0.0238251
0.219265 0.43479 -0.0237728
0.229377 0.439743 -0.0239075
0.249621 0.439703 -0.023829
0.279662 0.444823 -0.0239834
0.299653 0.444772 -0.0239292
0.329804 0.439692 -0.023816
0.359752 0.444653 -0.0240719
0.390007 0.439684 -0.0237888
0.399999 0.444682 -0.0240762
0.419979 0.444662 -0.0240213
0.450001 0.439629 -0.0237732
0.469989 0.439623 -0.0237518
0.489978 0.43962 -0.0238015
0.811177 0.439929 -0.0249695
0.801041 0.444888 -0.0249604
0.811136 0.42992 -0.0243921
0.780763 0.444793 -0.0244001
0.500007 0.444633 -0.0241664
0.52 0.444634 -0.0240877
0.53999 0.444639 -0.0240788
0.559979 0.444647 -0.024141
0.619977 0.444712 -0.0241954
0.660203 0.444689 -0.0241005
0.680196 0.444724 -0.0242222
0.740381 0.444884 -0.024161
0.801005 0.43488 -0.0243567
0.790878 0.439831 -0.0243382
0.760525 0.444707 -0.0241285
0.510022 0.43962 -0.0238017
0.530011 0.439623 -0.0237519
0.549999 0.439629 -0.0237733
0.609993 0.439684 -0.0237892
0.580021 0.444661 -0.0240217
0.6 0.444682 -0.0240766
0.670196 0.439692 -0.0238155
0.640248 0.444653 -0.0240714
0.700347 0.444772 -0.0239285
0.720337 0.444823 -0.0239829
0.811095 0.419917 -0.0238248
0.780735 0.43479 -0.0237725
0.750379 0.439703 -0.0238288
0.770623 0.439743 -0.0239071
0.117805 0.565047 -0.0278793
0.117849 0.555024 -0.0273256
0.117908 0.545021 -0.026738
0.107801 0.560081 -0.0263887
0.117954 0.535024 -0.0261523
0.107851 0.550074 -0.0258296
0.0977903 0.565117 -0.025184
0.118015 0.525001 -0.0255845
0.107906 0.54005 -0.0252825
0.0978354 0.555064 -0.0247292
0.11808 0.514991 -0.0250006
0.107964 0.530032 -0.0247304
0.118142 0.504994 -0.0244065
0.0978922 0.545054 -0.0241849
0.10803 0.520034 -0.0241627
0.118215 0.495005 -0.0238157
0.097948 0.535069 -0.0236409
0.0878878 0.570053 -0.0237032
0.178765 0.48492 -0.0264154
0.168558 0.489965 -0.0267732
0.158337 0.495018 -0.0270449
0.178712 0.494903 -0.0271746
0.148122 0.500048 -0.0271254
0.168504 0.499941 -0.0274724
0.158283 0.504979 -0.0276951
0.178674 0.504875 -0.0278176
0.137901 0.50508 -0.0271361
0.137974 0.495131 -0.0264864
0.148198 0.490074 -0.0264594
0.127826 0.500168 -0.0262213
0.158415 0.485024 -0.026317
0.148277 0.480074 -0.0257276
0.168625 0.47997 -0.0260517
0.138093 0.485139 -0.0257345
0.127917 0.4902 -0.0255739
0.158481 0.475026 -0.0255954
0.178824 0.474925 -0.0257043
0.168681 0.469974 -0.0253463
0.178872 0.464931 -0.0250056
0.148374 0.470085 -0.0250115
0.138204 0.475151 -0.024995
0.128044 0.480213 -0.024816
0.168739 0.459978 -0.024658
0.158566 0.46504 -0.0248891
0.148452 0.460086 -0.0243328
0.13829 0.465151 -0.0243133
0.178942 0.454937 -0.0243327
0.158635 0.455043 -0.0242145
0.128161 0.470226 -0.0241042
0.168819 0.449985 -0.0240011
0.188767 0.449933 -0.0256006
0.209085 0.449834 -0.0249803
0.229351 0.449742 -0.0245469
0.249598 0.44971 -0.0244547
0.198903 0.454885 -0.0256013
0.219205 0.454789 -0.0250591
0.239453 0.454702 -0.0247652
0.209042 0.459829 -0.0256324
0.229327 0.459734 -0.0252068
0.249577 0.459711 -0.0250905
0.188679 0.459917 -0.0263278
0.219176 0.464778 -0.0257398
0.239434 0.46469 -0.0254265
0.198839 0.46487 -0.0263226
0.2293 0.469728 -0.0258801
0.249559 0.469729 -0.0257618
0.18861 0.46991 -0.0270447
0.208997 0.469814 -0.0263521
0.239417 0.474678 -0.0261195
0.198787 0.474863 -0.0270482
0.219146 0.474765 -0.0264592
0.188542 0.479905 -0.0277966
0.20896 0.479807 -0.0270884
0.229279 0.479716 -0.0265989
0.249533 0.479758 -0.0264378
0.198736 0.484856 -0.0278131
0.219115 0.48476 -0.0271845
0.239394 0.484672 -0.0268247
0.188472 0.489897 -0.0285357
0.208919 0.4898 -0.027833
0.229259 0.4897 -0.0273546
0.249516 0.489787 -0.0271871
0.19868 0.494843 -0.0285756
0.219085 0.494742 -0.0279699
0.239375 0.494649 -0.0275927
0.188408 0.499868 -0.0292897
0.208885 0.499771 -0.0285718
0.229237 0.499681 -0.028058
0.249497 0.499787 -0.0278771
0.198641 0.504804 -0.0292677
0.219069 0.504709 -0.0286461
0.239369 0.504625 -0.0282494
0.168451 0.509919 -0.0281065
0.148056 0.510012 -0.0277908
0.127711 0.510115 -0.0268966
0.178628 0.514868 -0.0284492
0.158227 0.514957 -0.0283549
0.137824 0.515048 -0.0278004
0.168408 0.519907 -0.0287614
0.147993 0.519991 -0.0284508
0.127628 0.520086 -0.0275594
0.158176 0.524948 -0.0289826
0.178598 0.524862 -0.0291026
0.137758 0.525025 -0.0284525
0.168372 0.529902 -0.0294149
0.147939 0.529979 -0.0291016
0.127553 0.530065 -0.0282054
0.158134 0.534943 -0.0296363
0.178571 0.534861 -0.0297598
0.137696 0.535013 -0.0290567
0.168338 0.539907 -0.0300749
0.14789 0.539977 -0.0297511
0.127452 0.540042 -0.0288815
0.158092 0.544951 -0.0302956
0.178542 0.54487 -0.0304309
0.137639 0.545014 -0.0296978
0.147841 0.549995 -0.0303631
0.168303 0.549922 -0.0307397
0.127389 0.550044 -0.0295032
0.158053 0.554968 -0.0309443
0.178513 0.554886 -0.031101
0.137586 0.555028 -0.0303277
0.147798 0.560016 -0.0309878
0.16827 0.559941 -0.031392
0.127333 0.560061 -0.0301059
0.158029 0.565002 -0.0315099
0.178493 0.564929 -0.0316937
0.137555 0.565045 -0.030859
0.168262 0.570008 -0.0319058
0.147787 0.570044 -0.0315069
0.127318 0.57007 -0.0305471
0.188351 0.509839 -0.0299879
0.208858 0.509748 -0.0292557
0.229228 0.509665 -0.0287205
0.249493 0.509748 -0.0284957
0.198598 0.514794 -0.0299571
0.21905 0.514702 -0.029317
0.239356 0.514635 -0.0288744
0.188294 0.519839 -0.0306817
0.208831 0.519749 -0.0299331
0.229219 0.51967 -0.0293771
0.249489 0.519736 -0.0291164
0.198565 0.524799 -0.0306226
0.219038 0.524707 -0.0299737
0.239355 0.524645 -0.0295085
0.188244 0.529845 -0.0313998
0.208811 0.529762 -0.0305928
0.229215 0.529683 -0.0300226
0.249485 0.52974 -0.0297461
0.198534 0.53481 -0.0313277
0.219029 0.534725 -0.0306291
0.239356 0.534663 -0.0301479
0.188203 0.539877 -0.0320505
0.208794 0.539794 -0.031252
0.229212 0.53971 -0.0306753
0.249485 0.539775 -0.0304113
0.198506 0.544845 -0.0319862
0.21902 0.544757 -0.0312938
0.239353 0.544693 -0.0308071
0.188165 0.549924 -0.0327028
0.208778 0.549834 -0.0319144
0.229207 0.549746 -0.0313418
0.249484 0.549814 -0.0310834
0.198481 0.554895 -0.0326478
0.219011 0.554797 -0.0319624
0.239349 0.554728 -0.03148
0.188131 0.559996 -0.0333604
0.208764 0.559893 -0.0325848
0.229202 0.559791 -0.0320192
0.24948 0.559864 -0.0317803
0.198473 0.564952 -0.0332445
0.219014 0.56485 -0.0325615
0.239353 0.564784 -0.0320804
0.188126 0.57007 -0.0339043
0.208774 0.569931 -0.0331524
0.229217 0.569868 -0.0325506
0.249497 0.569954 -0.0322672
0.107746 0.570112 -0.0268606
0.117721 0.575106 -0.0283605
0.0977363 0.575178 -0.0256067
0.107692 0.580159 -0.0273509
0.0878153 0.580111 -0.0240802
0.117664 0.58516 -0.0288843
0.0976884 0.585217 -0.0260947
0.107631 0.590213 -0.0278506
0.0877675 0.590192 -0.0244993
0.117631 0.595205 -0.0294047
0.0976581 0.595258 -0.0265978
0.107603 0.600264 -0.028379
0.0877422 0.600339 -0.0249299
0.117594 0.60527 -0.029952
0.0976328 0.605313 -0.027101
0.107572 0.610318 -0.0289211
0.0877198 0.610392 -0.0254744
0.117578 0.615344 -0.0305745
0.0976081 0.615372 -0.0276513
0.10754 0.620394 -0.029537
0.0876939 0.620455 -0.0260722
0.117562 0.625522 -0.0311712
0.0976006 0.625456 -0.028154
0.107558 0.630565 -0.0300096
0.0877319 0.630533 -0.0264735
0.117585 0.635721 -0.031685
0.097635 0.635577 -0.0285769
0.107601 0.640746 -0.0305157
0.0877822 0.640612 -0.0268841
0.117634 0.645814 -0.0321966
0.0976716 0.645736 -0.0290722
0.10763 0.650874 -0.0310731
0.0878274 0.650706 -0.0273542
0.117677 0.655911 -0.0327571
0.0976891 0.655949 -0.0296935
0.078028 0.655811 -0.0253907
0.0780288 0.645734 -0.0248871
0.0780067 0.635653 -0.0244977
0.0779782 0.625521 -0.0241344
0.107635 0.660949 -0.0317077
0.087834 0.660845 -0.0279776
0.11767 0.666015 -0.0334603
0.0976566 0.666027 -0.0304353
0.0779907 0.665861 -0.0261103
0.107604 0.671071 -0.032501
0.0877395 0.671082 -0.0288764
0.117625 0.676169 -0.0343366
0.09757 0.676121 -0.031314
0.0778946 0.675992 -0.027001
0.107503 0.681218 -0.0334737
0.0876129 0.681175 -0.0298665
0.0681328 0.68111 -0.0250227
0.117498 0.686358 -0.0354222
0.0974391 0.68627 -0.0324057
0.0777205 0.686255 -0.0281572
0.107384 0.691441 -0.0344723
0.0874842 0.691323 -0.0308405
0.0679155 0.691129 -0.0259733
0.0683209 0.671064 -0.0240227
0.0780008 0.615449 -0.0236543
0.178484 0.575018 -0.0322228
0.15801 0.575066 -0.031999
0.137528 0.575078 -0.0313181
0.168244 0.580097 -0.032419
0.147758 0.580104 -0.031995
0.127276 0.580099 -0.0310105
0.178476 0.585131 -0.0327617
0.157999 0.585131 -0.0325491
0.137502 0.585127 -0.0318561
0.168241 0.59023 -0.0329811
0.147746 0.590213 -0.0325214
0.127282 0.590188 -0.0314767
0.178481 0.595296 -0.0333571
0.157998 0.59527 -0.0331041
0.137491 0.595245 -0.0323765
0.168244 0.600418 -0.0335892
0.147743 0.600382 -0.0330807
0.127266 0.600331 -0.0320051
0.157991 0.605541 -0.0337147
0.178484 0.605505 -0.0340139
0.137482 0.605427 -0.0329292
0.168237 0.610656 -0.0342695
0.14773 0.61061 -0.0337037
0.12722 0.610545 -0.0325966
0.157983 0.615687 -0.0343699
0.178484 0.61563 -0.0346864
0.137464 0.61574 -0.0335448
0.147712 0.620747 -0.0343557
0.168234 0.620688 -0.0349078
0.127195 0.620825 -0.033231
0.178494 0.625705 -0.035238
0.157992 0.625787 -0.0349445
0.137466 0.625845 -0.0341345
0.147742 0.63086 -0.0348904
0.168271 0.630816 -0.0353948
0.127215 0.630931 -0.0338078
0.198465 0.575054 -0.0338082
0.219021 0.574948 -0.033102
0.239362 0.574894 -0.0326071
0.229221 0.580004 -0.0330918
0.18808 0.580162 -0.0345351
0.208759 0.580057 -0.0336981
0.249502 0.58011 -0.032723
0.198442 0.585229 -0.0343848
0.219018 0.585106 -0.0336483
0.239365 0.585059 -0.0331416
0.188052 0.590379 -0.0351638
0.208757 0.590255 -0.0342965
0.229224 0.590203 -0.0336662
0.249515 0.590333 -0.0332276
[...]
POINT_DATA 8787
VECTORS alpha float
4.03071e-06 -1.88262e-08 1.70154e-07
-2.78988e-08 1.67643e-05 -1.15684e-06
3.91667e-06 -1.76642e-08 1.73476e-07
-2.74408e-10 1.57105e-05 -1.06912e-06
-2.80371e-08 1.68517e-05 -1.15284e-06
4.20021e-06 -1.8607e-08 1.25174e-07
2.31364e-08 1.41323e-05 -9.48415e-07
9.48883e-09 1.24156e-05 -8.9082e-07
1.19187e-08 8.0484e-06 -5.80529e-07
1.03574e-08 6.97871e-06 -5.01886e-07
4.71613e-09 5.13894e-06 -3.6901e-07
1.84489e-09 2.56322e-06 -1.85368e-07
6.52621e-10 1.70823e-06 -1.2307e-07
3.45911e-11 8.53779e-07 -6.13886e-08
3.81567e-06 -1.66134e-08 1.7712e-07
-2.76729e-10 1.57939e-05 -1.06513e-06
4.36151e-06 -1.76453e-08 6.33076e-08
4.51223e-06 -1.78699e-08 2.29526e-08
1.59137e-08 1.07526e-05 -7.66171e-07
1.91251e-08 9.29109e-06 -6.57387e-07
4.97864e-06 -8.32595e-09 3.09802e-08
9.40346e-09 6.02363e-06 -4.33984e-07
5.25453e-06 -5.92468e-09 3.23675e-08
2.64743e-09 4.27396e-06 -3.07787e-07
8.90938e-10 3.41773e-06 -2.46814e-07
5.42703e-06 -2.08492e-09 1.57612e-08
5.45654e-06 -1.22249e-09 -3.91159e-09
5.47177e-06 -3.42424e-10 -2.33601e-08
4.03121e-06 1.88209e-08 -1.70223e-07
-2.78712e-08 -1.67645e-05 1.15684e-06
3.91722e-06 1.76536e-08 -1.73477e-07
-2.43616e-10 -1.57107e-05 1.0689e-06
2.40787e-14 7.96981e-11 -5.73035e-12
3.57226e-11 -8.53625e-07 6.13799e-08
6.54783e-10 -1.70809e-06 1.23051e-07
1.84808e-09 -2.5631e-06 1.85327e-07
4.72526e-09 -5.1389e-06 3.68853e-07
1.03641e-08 -6.97876e-06 5.01779e-07
1.19283e-08 -8.04847e-06 5.80393e-07
9.51744e-09 -1.24158e-05 8.9069e-07
-2.80091e-08 -1.68519e-05 1.15284e-06
4.20064e-06 1.86001e-08 -1.25238e-07
2.31675e-08 -1.41326e-05 9.48328e-07
5.47176e-06 3.35668e-10 2.33855e-08
5.45652e-06 1.21467e-09 3.91801e-09
5.427e-06 2.0762e-09 -1.57769e-08
5.25452e-06 5.91244e-09 -3.23827e-08
8.88644e-10 -3.41762e-06 2.46785e-07
2.64608e-09 -4.27387e-06 3.07745e-07
4.97873e-06 8.32695e-09 -3.09815e-08
9.39857e-09 -6.02361e-06 4.34025e-07
1.91194e-08 -9.29115e-06 6.57522e-07
1.59174e-08 -1.07526e-05 7.66264e-07
3.81582e-06 1.66101e-08 -1.77136e-07
-2.56623e-10 -1.5794e-05 1.06521e-06
4.51254e-06 1.78614e-08 -2.29733e-08
4.36188e-06 1.76388e-08 -6.33305e-08
-1.75607e-08 1.13101e-05 -6.7863e-07
-1.79679e-08 1.14503e-05 -7.04931e-07
-2.16573e-08 1.16006e-05 -7.24817e-07
4.48596e-06 -2.1769e-08 -6.02318e-07
-2.2225e-08 1.17551e-05 -7.41476e-07
4.49743e-06 -2.15864e-08 -5.91484e-07
-4.24891e-08 1.21153e-05 -6.61559e-07
-2.67403e-08 1.18991e-05 -7.55322e-07
4.47755e-06 -2.28956e-08 -5.7583e-07
-4.36641e-08 1.22306e-05 -6.79195e-07
-3.24125e-08 1.20357e-05 -7.69434e-07
4.40398e-06 -2.44117e-08 -5.52572e-07
-3.567e-08 1.21669e-05 -7.77934e-07
-4.39792e-08 1.23642e-05 -6.99202e-07
4.30491e-06 -2.56987e-08 -5.25632e-07
-4.38683e-08 1.2289e-05 -7.84176e-07
-4.35184e-08 1.25021e-05 -7.16329e-07
4.11897e-06 -2.43485e-08 -7.77904e-07
2.85448e-08 1.64921e-05 -1.18774e-06
4.70481e-06 -2.56601e-08 -2.64555e-08
-7.77973e-09 1.54489e-05 -1.12554e-06
2.5811e-08 1.63646e-05 -1.19495e-06
4.65366e-06 -2.42283e-08 -1.32528e-07
4.92748e-06 -2.64533e-08 -2.79346e-08
-1.20269e-08 1.53223e-05 -1.12174e-06
2.01886e-08 1.62395e-05 -1.19762e-06
-3.75649e-08 1.36371e-05 -9.93849e-07
-3.48543e-08 1.37612e-05 -1.00285e-06
4.45648e-06 -2.42807e-08 -1.23062e-07
4.37286e-06 -2.24427e-08 -2.54677e-07
-4.28956e-09 1.55762e-05 -1.13016e-06
4.21606e-06 -2.13729e-08 -1.13573e-07
4.44204e-06 -2.29806e-08 -2.20356e-08
-4.30483e-08 1.38879e-05 -1.00053e-06
4.19967e-06 -2.23918e-08 -2.38961e-07
-5.23139e-09 1.5693e-05 -1.12334e-06
2.99177e-08 1.66034e-05 -1.18916e-06
4.25946e-06 -2.07913e-08 -1.95862e-08
2.44239e-08 1.67092e-05 -1.18219e-06
4.04719e-06 -1.96014e-08 -1.07537e-07
-5.30986e-08 1.40035e-05 -9.9944e-07
3.98173e-06 -1.99875e-08 -2.23944e-07
4.10511e-06 -1.92797e-08 -1.72559e-08
-2.16447e-08 1.58e-05 -1.12239e-06
3.90376e-06 -1.81837e-08 -1.00609e-07
-5.86405e-08 1.41097e-05 -9.99686e-07
7.47108e-09 1.68066e-05 -1.1914e-06
-3.17714e-08 1.59004e-05 -1.1211e-06
3.82911e-06 -1.82183e-08 -2.12111e-07
3.95919e-06 -1.84876e-08 -1.46145e-08
4.15689e-06 -1.97705e-08 1.72649e-07
4.32703e-06 -1.9539e-08 1.28403e-07
4.48728e-06 -1.83746e-08 6.65449e-08
4.63544e-06 -1.87243e-08 2.87475e-08
-2.09321e-08 1.66757e-05 -1.1625e-06
7.31752e-09 1.56245e-05 -1.07906e-06
2.99209e-08 1.40526e-05 -9.60435e-07
4.48601e-06 -2.00691e-08 1.32844e-07
4.64671e-06 -1.89869e-08 7.376e-08
4.79254e-06 -1.94585e-08 3.82973e-08
4.31717e-06 -2.02535e-08 1.87568e-07
1.30247e-08 1.55353e-05 -1.09098e-06
3.49519e-08 1.39707e-05 -9.74504e-07
-1.06025e-08 1.65798e-05 -1.17333e-06
4.82113e-06 -1.93318e-08 7.94656e-08
4.96661e-06 -2.01722e-08 4.74319e-08
4.48639e-06 -2.11826e-08 1.97961e-07
4.66135e-06 -2.06132e-08 1.46314e-07
3.81617e-08 1.38861e-05 -9.88792e-07
-6.75309e-09 1.64793e-05 -1.18371e-06
2.03838e-08 1.54409e-05 -1.1073e-06
4.68903e-06 -2.24381e-08 2.10328e-07
4.87235e-06 -2.19731e-08 1.57333e-07
5.03808e-06 -2.01433e-08 9.24305e-08
5.18353e-06 -2.07188e-08 5.93159e-08
-4.85458e-09 1.63698e-05 -1.19382e-06
2.04501e-08 1.53435e-05 -1.11783e-06
4.12408e-08 1.37974e-05 -1.00472e-06
4.98068e-06 -2.37887e-08 2.2063e-07
5.1788e-06 -2.33476e-08 1.67562e-07
5.35635e-06 -2.21689e-08 1.037e-07
5.50882e-06 -2.34386e-08 6.90245e-08
-5.73895e-09 1.62512e-05 -1.19865e-06
2.04877e-08 1.5232e-05 -1.1271e-06
4.11466e-08 1.36986e-05 -1.01495e-06
5.23546e-06 -2.40117e-08 2.3588e-07
5.45218e-06 -2.36286e-08 1.81041e-07
5.6441e-06 -2.15728e-08 1.12386e-07
5.80738e-06 -2.31374e-08 8.27421e-08
-6.47721e-09 1.61445e-05 -1.19387e-06
1.9671e-08 1.51337e-05 -1.1252e-06
4.03352e-08 1.36107e-05 -1.01548e-06
5.11561e-06 -2.41436e-08 -2.83451e-08
4.81957e-06 -2.23823e-08 -1.36135e-07
4.51917e-06 -1.99414e-08 -2.62356e-07
2.63246e-08 1.6108e-05 -1.18342e-06
-3.83967e-09 1.51849e-05 -1.11186e-06
-2.95323e-08 1.35033e-05 -9.79806e-07
5.31976e-06 -2.31746e-08 -2.75982e-08
4.99461e-06 -2.09896e-08 -1.40865e-07
4.66848e-06 -1.82706e-08 -2.72291e-07
-6.48091e-10 1.50387e-05 -1.09414e-06
2.8788e-08 1.59584e-05 -1.18018e-06
-2.41122e-08 1.3358e-05 -9.65563e-07
5.49308e-06 -2.24846e-08 -2.87614e-08
5.13974e-06 -1.98227e-08 -1.46816e-07
4.79038e-06 -1.66796e-08 -2.82645e-07
2.41368e-09 1.48748e-05 -1.08441e-06
2.96867e-08 1.57933e-05 -1.17473e-06
-2.00217e-08 1.32052e-05 -9.42856e-07
5.62615e-06 -2.22694e-08 -3.15667e-08
5.24792e-06 -1.90689e-08 -1.53219e-07
4.88292e-06 -1.55414e-08 -2.89524e-07
5.10139e-09 1.46991e-05 -1.06438e-06
2.94574e-08 1.56144e-05 -1.15642e-06
-1.4894e-08 1.30394e-05 -9.21532e-07
5.27485e-06 -1.74725e-08 -1.61327e-07
5.66866e-06 -2.23288e-08 -3.64167e-08
4.90464e-06 -1.45337e-08 -2.97642e-07
7.45431e-09 1.45167e-05 -1.0399e-06
2.86521e-08 1.54252e-05 -1.13125e-06
-9.93916e-09 1.28711e-05 -8.98451e-07
5.24689e-06 -1.76886e-08 -1.68177e-07
5.64456e-06 -2.31804e-08 -4.32258e-08
4.88223e-06 -1.41225e-08 -3.04797e-07
8.60799e-09 1.43397e-05 -1.01763e-06
2.66835e-08 1.52351e-05 -1.10759e-06
-5.99565e-09 1.27134e-05 -8.76989e-07
5.48353e-06 -1.6815e-08 -4.98473e-08
5.10484e-06 -1.24819e-08 -1.69683e-07
4.76776e-06 -7.97352e-09 -3.07012e-07
5.45575e-06 -2.24534e-08 2.49207e-07
5.69206e-06 -2.2252e-08 1.94303e-07
5.90087e-06 -2.01713e-08 1.25024e-07
6.0769e-06 -2.12681e-08 9.96888e-08
-1.54227e-10 1.60249e-05 -1.18118e-06
2.33412e-08 1.50235e-05 -1.11504e-06
4.02058e-08 1.35166e-05 -1.0052e-06
5.69957e-06 -2.13796e-08 2.64251e-07
5.96403e-06 -2.15283e-08 2.09369e-07
6.19892e-06 -1.9644e-08 1.39176e-07
6.3967e-06 -2.02839e-08 1.18639e-07
5.27304e-09 1.58886e-05 -1.16829e-06
2.53084e-08 1.48973e-05 -1.10561e-06
3.94911e-08 1.3404e-05 -1.00015e-06
5.91387e-06 -2.14942e-08 2.80714e-07
6.20858e-06 -2.11043e-08 2.20402e-07
6.47409e-06 -1.96438e-08 1.51629e-07
6.69875e-06 -1.97363e-08 1.37521e-07
1.06592e-08 1.57295e-05 -1.1586e-06
2.65801e-08 1.4753e-05 -1.09758e-06
3.79765e-08 1.32744e-05 -9.96155e-07
6.08522e-06 -2.13703e-08 2.85239e-07
6.41183e-06 -2.14379e-08 2.27696e-07
6.71027e-06 -2.05252e-08 1.6076e-07
6.96445e-06 -1.85191e-08 1.55174e-07
1.53674e-08 1.55554e-05 -1.14168e-06
2.74219e-08 1.45895e-05 -1.0843e-06
3.56102e-08 1.31264e-05 -9.87113e-07
6.15738e-06 -2.14275e-08 2.83348e-07
6.51169e-06 -2.22234e-08 2.28512e-07
6.84173e-06 -2.2048e-08 1.63847e-07
7.12768e-06 -1.74086e-08 1.65233e-07
2.00564e-08 1.53648e-05 -1.12343e-06
2.81954e-08 1.44074e-05 -1.06787e-06
3.30451e-08 1.29592e-05 -9.74507e-07
6.15259e-06 -2.24482e-08 2.7695e-07
6.52776e-06 -2.39853e-08 2.2471e-07
6.88493e-06 -2.47067e-08 1.62078e-07
7.20077e-06 -1.68425e-08 1.71304e-07
2.33195e-08 1.51801e-05 -1.10507e-06
2.78689e-08 1.42254e-05 -1.05093e-06
2.96158e-08 1.27871e-05 -9.6199e-07
5.98902e-06 -1.82382e-08 2.66295e-07
6.37047e-06 -2.06406e-08 2.24704e-07
6.74149e-06 -1.98093e-08 1.61045e-07
7.07895e-06 -1.0189e-08 1.78859e-07
4.40794e-06 -1.99304e-08 -6.02914e-07
6.11258e-09 1.11859e-05 -6.60235e-07
-2.0623e-08 1.20108e-05 -6.58181e-07
4.32136e-06 -1.92018e-08 -6.01112e-07
4.08035e-06 -2.19799e-08 -7.83453e-07
2.39337e-08 1.10857e-05 -6.4219e-07
-1.32695e-09 1.19277e-05 -6.54219e-07
4.19913e-06 -1.74959e-08 -5.9353e-07
4.0248e-06 -1.98152e-08 -7.86231e-07
4.10093e-08 1.10229e-05 -6.30402e-07
1.73307e-08 1.18806e-05 -6.45491e-07
4.12211e-06 -1.77778e-08 -5.9086e-07
4.01822e-06 -1.79393e-08 -7.99058e-07
6.19808e-08 1.10083e-05 -6.21133e-07
3.9617e-08 1.18734e-05 -6.31383e-07
4.25104e-06 -1.91346e-08 -6.17358e-07
4.18439e-06 -1.95436e-08 -8.46344e-07
7.7599e-08 1.10217e-05 -6.11464e-07
6.15618e-08 1.18859e-05 -6.14323e-07
4.3652e-06 -2.02219e-08 -6.41313e-07
4.35122e-06 -2.20901e-08 -8.91881e-07
9.56106e-08 1.10748e-05 -6.06483e-07
8.41222e-08 1.19281e-05 -5.95859e-07
4.67841e-06 -1.09564e-08 -6.951e-07
4.6884e-06 -1.41919e-08 -9.68636e-07
1.10862e-07 1.11576e-05 -6.1403e-07
1.0385e-07 1.19909e-05 -5.87102e-07
5.24511e-06 -2.85271e-09 -7.86337e-07
5.23126e-06 -6.02214e-09 -1.08647e-06
1.1828e-07 1.12527e-05 -6.18735e-07
1.12266e-07 1.20449e-05 -6.10436e-07
6.14529e-06 3.80877e-09 -9.26778e-07
6.0398e-06 3.78059e-09 -1.26148e-06
1.15746e-07 1.13325e-05 -6.43815e-07
1.03234e-07 1.20593e-05 -6.75953e-07
1.48274e-07 1.76753e-05 -9.07082e-07
1.64089e-07 1.77519e-05 -8.48758e-07
1.37388e-07 1.77709e-05 -8.00101e-07
1.01188e-07 1.77202e-05 -8.17442e-07
7.39673e-06 1.07911e-08 -1.11305e-06
7.11552e-06 1.92038e-08 -1.49571e-06
1.06404e-07 1.13681e-05 -7.12804e-07
8.74444e-08 1.19999e-05 -7.58729e-07
1.12274e-07 1.75042e-05 -1.03467e-06
9.02833e-06 2.10344e-08 -1.35668e-06
8.46897e-06 3.92936e-08 -1.81023e-06
7.93788e-08 1.12989e-05 -7.98758e-07
6.23614e-08 1.18199e-05 -8.49983e-07
5.92311e-08 1.72101e-05 -1.20781e-06
1.09824e-05 4.15876e-08 -1.65001e-06
1.00426e-05 5.2091e-08 -2.16456e-06
8.87355e-06 1.61896e-08 -2.48773e-06
3.88198e-08 1.10719e-05 -9.19245e-07
2.00951e-08 1.14665e-05 -9.68225e-07
-1.37345e-08 1.67284e-05 -1.43888e-06
1.31839e-05 7.50497e-08 -1.98634e-06
1.1768e-05 8.83746e-08 -2.55247e-06
1.01493e-05 6.77311e-08 -2.86202e-06
7.67169e-06 3.64124e-09 -2.14274e-06
6.45668e-08 1.77057e-05 -8.38442e-07
3.24695e-08 1.50555e-05 -1.08945e-06
2.68685e-08 1.41822e-05 -9.96237e-07
1.2332e-08 1.25812e-05 -8.57946e-07
5.26445e-06 -1.13499e-08 -5.28323e-08
4.92323e-06 -7.07214e-09 -1.68454e-07
4.63247e-06 -2.53638e-09 -3.03225e-07
5.6459e-08 1.48922e-05 -1.06044e-06
4.22012e-08 1.40399e-05 -9.79819e-07
2.69541e-08 1.24693e-05 -8.49067e-07
4.93341e-06 -8.2125e-09 -5.60607e-08
4.65705e-06 -3.91909e-09 -1.65223e-07
4.4359e-06 3.09791e-10 -2.98186e-07
6.62383e-08 1.47544e-05 -1.03732e-06
5.44179e-08 1.39338e-05 -9.61332e-07
4.022e-08 1.23961e-05 -8.36258e-07
4.59614e-06 -7.1239e-09 -5.98142e-08
4.40704e-06 -2.77155e-09 -1.63133e-07
4.27563e-06 1.36647e-09 -2.93077e-07
6.0604e-08 1.38726e-05 -9.50484e-07
7.29319e-08 1.46527e-05 -1.0081e-06
5.23163e-08 1.23654e-05 -8.20386e-07
4.51206e-06 -9.32106e-09 -6.75947e-08
4.40616e-06 -4.74797e-09 -1.70978e-07
4.35175e-06 4.60463e-10 -3.03512e-07
7.22892e-08 1.38358e-05 -9.02241e-07
8.22248e-08 1.4582e-05 -9.40893e-07
5.92825e-08 1.23681e-05 -8.15087e-07
4.34345e-06 -1.01407e-08 -1.71751e-07
4.338e-06 -1.55927e-08 -6.32069e-08
4.38897e-06 -3.74489e-09 -3.14608e-07
9.33863e-08 1.45657e-05 -8.30939e-07
8.62811e-08 1.38519e-05 -8.22059e-07
7.41253e-08 1.24093e-05 -7.55562e-07
4.51227e-06 -7.1633e-09 -1.68618e-07
4.39286e-06 -1.27073e-08 -5.31519e-08
4.64934e-06 -9.71911e-10 -3.24981e-07
2.74596e-08 1.50107e-05 -1.09455e-06
2.98203e-08 1.40504e-05 -1.04034e-06
2.92622e-08 1.26146e-05 -9.55566e-07
6.48505e-06 -1.60057e-08 1.60074e-07
5.74874e-06 -1.64948e-08 2.71773e-07
6.11544e-06 -1.71967e-08 2.22624e-07
6.83321e-06 -4.79198e-09 1.80835e-07
3.69367e-08 1.48467e-05 -1.09191e-06
3.85768e-08 1.38737e-05 -1.03307e-06
3.63394e-08 1.24347e-05 -9.49134e-07
5.36402e-06 -1.59386e-08 2.5729e-07
5.69234e-06 -1.60326e-08 2.09984e-07
6.03932e-06 -1.3968e-08 1.5094e-07
6.38063e-06 -2.77483e-09 1.703e-07
4.21306e-08 1.46937e-05 -1.09188e-06
4.29332e-08 1.37014e-05 -1.02579e-06
3.884e-08 1.22528e-05 -9.41575e-07
4.94566e-06 -1.76036e-08 2.3845e-07
5.20802e-06 -1.59292e-08 1.86248e-07
5.50712e-06 -1.44515e-08 1.36295e-07
5.81805e-06 -3.27787e-09 1.52006e-07
5.17943e-08 1.45542e-05 -1.05376e-06
4.64984e-08 1.35463e-05 -1.01657e-06
4.02877e-08 1.20814e-05 -9.31259e-07
4.77906e-06 -2.22782e-08 2.33573e-07
4.96099e-06 -2.1179e-08 1.82931e-07
5.18944e-06 -1.82755e-08 1.28175e-07
5.44928e-06 -8.29059e-09 1.38125e-07
6.73292e-08 1.4437e-05 -9.72959e-07
5.79651e-08 1.34027e-05 -9.29159e-07
4.75834e-08 1.19221e-05 -8.4894e-07
4.48801e-06 -2.81864e-08 2.26104e-07
4.55864e-06 -2.65189e-08 1.72668e-07
4.68891e-06 -2.32373e-08 1.18639e-07
4.86636e-06 -1.31938e-08 1.21082e-07
8.23888e-08 1.43982e-05 -8.58075e-07
6.89383e-08 1.33298e-05 -8.21105e-07
5.45548e-08 1.18202e-05 -7.5203e-07
4.41948e-06 -2.55201e-08 2.30923e-07
4.35751e-06 -2.28948e-08 1.75677e-07
4.3632e-06 -1.873e-08 1.23456e-07
4.43453e-06 -1.04165e-08 1.10323e-07
1.09996e-07 1.46172e-05 -7.27966e-07
1.06355e-07 1.39302e-05 -7.21625e-07
9.58542e-08 1.25015e-05 -6.64761e-07
5.01207e-06 -4.90286e-09 -1.74308e-07
4.79956e-06 -1.14312e-08 -4.1701e-08
5.2082e-06 2.51882e-09 -3.55581e-07
1.23901e-07 1.47323e-05 -6.84327e-07
1.22348e-07 1.40605e-05 -6.82769e-07
1.12436e-07 1.26299e-05 -6.32943e-07
5.69784e-06 -1.14005e-08 -4.1016e-08
5.9637e-06 -3.75322e-09 -2.03521e-07
6.16669e-06 5.67017e-09 -4.2366e-07
1.2471e-07 1.48946e-05 -7.19575e-07
1.13494e-07 1.2763e-05 -6.74163e-07
1.23749e-07 1.422e-05 -7.2484e-07
7.17629e-06 -1.57731e-08 -4.2268e-08
7.42959e-06 -5.12943e-09 -2.538e-07
7.56298e-06 7.41198e-09 -5.31946e-07
1.07238e-07 1.43777e-05 -8.3336e-07
1.04235e-07 1.50822e-05 -8.37683e-07
1.013e-07 1.28681e-05 -7.78812e-07
9.48404e-06 -6.30081e-09 -3.39855e-07
9.33694e-06 -2.42035e-08 -5.31151e-08
9.44521e-06 1.01186e-08 -7.01429e-07
6.79093e-08 1.45009e-05 -1.04185e-06
5.95877e-08 1.52693e-05 -1.06247e-06
6.76092e-08 1.29016e-05 -9.61719e-07
1.20927e-05 -4.29813e-09 -4.82465e-07
1.21667e-05 -3.0923e-08 -9.12162e-08
1.17626e-05 1.85224e-08 -9.50991e-07
4.15757e-09 1.45306e-05 -1.37228e-06
-1.02475e-08 1.53985e-05 -1.43468e-06
1.13362e-08 1.28065e-05 -1.23684e-06
1.5192e-05 1.75169e-08 -6.36726e-07
1.56075e-05 -2.05508e-08 -1.52072e-07
1.44515e-05 4.70001e-08 -1.20012e-06
1.02341e-07 1.44406e-05 -6.90668e-07
8.2962e-08 1.33324e-05 -6.66442e-07
6.35603e-08 1.17836e-05 -6.21516e-07
4.71981e-06 -2.58757e-08 2.46115e-07
4.52086e-06 -2.21565e-08 1.88604e-07
4.3898e-06 -1.78082e-08 1.36914e-07
4.34349e-06 -1.1746e-08 1.08386e-07
1.18453e-07 1.45523e-05 -5.95512e-07
9.36651e-08 1.34039e-05 -5.83384e-07
6.81439e-08 1.18128e-05 -5.46474e-07
5.55394e-06 -3.30289e-08 2.97506e-07
5.22482e-06 -2.56649e-08 2.26623e-07
4.95366e-06 -1.93302e-08 1.68055e-07
4.778e-06 -1.61382e-08 1.16994e-07
1.24058e-07 1.47185e-05 -6.0367e-07
9.55791e-08 1.35373e-05 -5.87868e-07
6.64192e-08 1.19056e-05 -5.51169e-07
7.0349e-06 -4.43988e-08 3.69792e-07
6.60845e-06 -3.56729e-08 2.94277e-07
6.21497e-06 -2.57021e-08 2.27329e-07
5.91757e-06 -2.42577e-08 1.43073e-07
1.15837e-07 1.49243e-05 -7.33216e-07
8.43874e-08 1.37265e-05 -7.01127e-07
5.42373e-08 1.20577e-05 -6.563e-07
9.29349e-06 -7.00857e-08 4.63241e-07
8.82664e-06 -5.7125e-08 3.93886e-07
8.35127e-06 -3.8901e-08 3.26317e-07
7.94792e-06 -3.90859e-08 1.99333e-07
8.64102e-08 1.51452e-05 -1.01951e-06
5.64485e-08 1.39445e-05 -9.63886e-07
2.7128e-08 1.22592e-05 -8.80863e-07
1.2344e-05 -1.10451e-07 5.53085e-07
1.19212e-05 -9.25913e-08 5.12131e-07
1.14319e-05 -6.5599e-08 4.64827e-07
1.0963e-05 -7.12648e-08 3.19246e-07
2.93954e-08 1.53481e-05 -1.52014e-06
2.67173e-09 1.41829e-05 -1.42592e-06
-2.07216e-08 1.24867e-05 -1.29934e-06
1.6153e-05 -1.47776e-07 7.15912e-07
1.58668e-05 -1.17447e-07 6.67188e-07
1.54431e-05 -8.38367e-08 6.16899e-07
1.5005e-05 -1.04464e-07 4.85698e-07
4.74427e-06 -1.39781e-08 4.53304e-08
4.86342e-06 -1.25175e-08 1.50845e-08
4.97246e-06 -1.07879e-08 -1.32143e-08
1.41411e-08 1.23432e-05 -8.95513e-07
1.94722e-08 1.06858e-05 -7.70237e-07
2.17853e-08 9.22947e-06 -6.60605e-07
4.90536e-06 -1.51605e-08 4.84382e-08
5.02032e-06 -1.34664e-08 1.89183e-08
5.12528e-06 -1.13482e-08 -9.52935e-09
2.40303e-08 9.16642e-06 -6.64547e-07
5.29807e-06 -1.18927e-08 -5.2402e-09
2.06742e-08 1.22672e-05 -9.03336e-07
2.31645e-08 1.06181e-05 -7.75022e-07
5.08546e-06 -1.6649e-08 5.51306e-08
5.1972e-06 -1.43497e-08 2.48582e-08
2.29153e-08 1.2191e-05 -9.07053e-07
2.55902e-08 1.0547e-05 -7.80404e-07
2.59815e-08 9.10287e-06 -6.68601e-07
5.31203e-06 -1.82907e-08 5.9406e-08
5.42172e-06 -1.61329e-08 2.94629e-08
5.51871e-06 -1.32069e-08 1.1479e-09
2.56986e-08 1.21058e-05 -9.13932e-07
2.63689e-08 1.04741e-05 -7.83396e-07
2.61268e-08 9.03777e-06 -6.70735e-07
5.64878e-06 -2.13077e-08 6.64331e-08
5.76048e-06 -1.84087e-08 3.51091e-08
5.85594e-06 -1.51616e-08 6.68258e-09
2.67127e-08 1.20151e-05 -9.17346e-07
2.76572e-08 1.03924e-05 -7.87952e-07
2.67542e-08 8.96612e-06 -6.73778e-07
5.96553e-06 -2.23579e-08 7.59811e-08
6.08236e-06 -1.91296e-08 4.36254e-08
6.17957e-06 -1.55215e-08 1.43394e-08
2.87003e-08 1.19469e-05 -9.11853e-07
2.87007e-08 1.03329e-05 -7.84422e-07
2.7125e-08 8.91396e-06 -6.71686e-07
5.09711e-06 -9.04891e-09 3.21215e-08
5.18977e-06 -8.07502e-09 1.08814e-08
5.27395e-06 -6.98875e-09 -1.02123e-08
1.47375e-08 7.99185e-06 -5.79267e-07
1.23687e-08 6.92677e-06 -5.00353e-07
1.02698e-08 5.97739e-06 -4.30836e-07
5.25188e-06 -9.71582e-09 3.47794e-08
5.34317e-06 -8.34102e-09 1.37361e-08
5.42561e-06 -6.82162e-09 -6.79219e-09
1.71367e-08 7.93437e-06 -5.79786e-07
1.40265e-08 6.87396e-06 -5.00561e-07
1.13403e-08 5.92934e-06 -4.30864e-07
5.42568e-06 -1.03934e-08 3.78596e-08
5.51405e-06 -8.70462e-09 1.65554e-08
5.59392e-06 -6.8602e-09 -4.08254e-09
1.529e-08 6.82055e-06 -5.02066e-07
1.20578e-08 5.88068e-06 -4.32168e-07
5.81435e-06 -6.59763e-09 -1.73742e-10
1.98737e-08 7.87739e-06 -5.798e-07
5.65207e-06 -1.06586e-08 4.2788e-08
5.73732e-06 -8.61864e-09 2.14037e-08
2.13772e-08 7.81654e-06 -5.82262e-07
1.67356e-08 6.76629e-06 -5.0242e-07
1.2853e-08 5.83139e-06 -4.32327e-07
5.99322e-06 -1.18234e-08 4.85596e-08
6.07541e-06 -9.59093e-09 2.61668e-08
6.14844e-06 -7.18273e-09 4.74018e-09
2.18119e-08 7.75532e-06 -5.8128e-07
1.67752e-08 6.71129e-06 -5.01379e-07
1.29043e-08 5.7799e-06 -4.33589e-07
6.32606e-06 -1.1411e-08 5.34812e-08
6.40657e-06 -9.50409e-09 3.04805e-08
6.47776e-06 -6.80793e-09 8.1685e-09
2.2547e-08 7.71123e-06 -5.785e-07
1.70165e-08 6.6717e-06 -4.98448e-07
1.27491e-08 5.74395e-06 -4.30773e-07
6.25519e-06 -2.10772e-08 8.92274e-08
6.37935e-06 -1.7539e-08 5.67747e-08
6.48012e-06 -1.35882e-08 2.75315e-08
3.07504e-08 1.18691e-05 -9.05708e-07
2.91443e-08 1.02659e-05 -7.81533e-07
2.64216e-08 8.85646e-06 -6.71143e-07
6.60602e-06 -1.92334e-08 1.02689e-07
6.74494e-06 -1.63224e-08 7.09907e-08
6.85654e-06 -1.21303e-08 4.15658e-08
3.25756e-08 1.17772e-05 -9.00782e-07
2.94363e-08 1.01874e-05 -7.7958e-07
2.56333e-08 8.78989e-06 -6.71439e-07
6.94539e-06 -1.82389e-08 1.17152e-07
7.1061e-06 -1.53734e-08 8.52109e-08
7.23434e-06 -1.10741e-08 5.55585e-08
3.42133e-08 1.16693e-05 -8.96321e-07
2.92084e-08 1.00952e-05 -7.7851e-07
2.40923e-08 8.71241e-06 -6.73139e-07