# vtk DataFile Version 3.0
vtk output
ASCII
DATASET POLYDATA
POINTS 19190 float
0.13966 0.960306 -0.0521572
0.139861 0.950315 -0.0516005
0.140036 0.940321 -0.0510596
0.129071 0.965414 -0.0509142
0.140158 0.930324 -0.0505877
0.129287 0.955419 -0.0503646
0.140377 0.92033 -0.0499959
0.129516 0.945422 -0.0498123
0.140584 0.910336 -0.0494246
0.129741 0.935431 -0.0492437
0.140849 0.900334 -0.0487154
0.129896 0.925439 -0.0487712
0.118953 0.960516 -0.0485466
0.172382 0.905019 -0.051389
0.183186 0.899933 -0.0511025
0.193819 0.90484 -0.051329
0.172562 0.895025 -0.0507563
0.193955 0.894847 -0.0506767
0.161795 0.900115 -0.0507129
0.183369 0.889942 -0.0504539
0.183523 0.879952 -0.0498169
0.151176 0.905223 -0.050181
0.172734 0.88504 -0.0501446
0.194086 0.884862 -0.0500449
0.161994 0.890123 -0.0501036
0.172898 0.875047 -0.0495513
0.194216 0.874868 -0.0494301
0.162162 0.880132 -0.0495356
0.151397 0.895222 -0.0495146
0.183692 0.869962 -0.0491978
0.183849 0.859967 -0.0485692
0.173101 0.865057 -0.0488966
0.194374 0.864878 -0.0487921
0.162369 0.870142 -0.0489242
0.15163 0.885231 -0.0488321
0.204527 0.899754 -0.0508189
0.20465 0.889764 -0.050183
0.215093 0.90466 -0.0509269
0.236032 0.904492 -0.0508856
0.25669 0.904344 -0.0509059
0.215198 0.894669 -0.050294
0.236112 0.894502 -0.0502658
0.256752 0.894354 -0.050265
0.246393 0.899421 -0.0506515
0.225667 0.89958 -0.0505305
0.225755 0.889586 -0.0499369
0.246463 0.88943 -0.0500168
0.204768 0.879773 -0.0495528
0.215305 0.88468 -0.0496946
0.236189 0.884514 -0.0496632
0.25681 0.884366 -0.0496429
0.215412 0.874689 -0.0491241
0.236271 0.874527 -0.0490487
0.25688 0.87438 -0.0490029
0.225857 0.879603 -0.0493188
0.246534 0.879447 -0.0493689
0.204909 0.869786 -0.0489006
0.225947 0.869608 -0.0487653
0.246612 0.869454 -0.0487514
0.183018 0.909925 -0.0517662
0.161608 0.910109 -0.0513414
0.17218 0.915006 -0.0520618
0.193639 0.914827 -0.0520146
0.150875 0.915214 -0.0509947
0.182834 0.919911 -0.0524506
0.193476 0.924821 -0.0526574
0.161372 0.920095 -0.052024
0.150669 0.925214 -0.0515814
0.182679 0.929905 -0.0530683
0.161165 0.930093 -0.0526171
0.172009 0.925 -0.0526709
0.150103 0.965196 -0.0537142
0.150242 0.955202 -0.0532314
0.150405 0.945204 -0.052655
0.15052 0.935207 -0.0521425
0.171859 0.934987 -0.0532528
0.193335 0.934808 -0.0533054
0.182503 0.93989 -0.053728
0.160958 0.940084 -0.0532152
0.193184 0.944793 -0.053969
0.171695 0.944979 -0.0538376
0.160849 0.950084 -0.0537516
0.182313 0.949878 -0.0543691
0.171461 0.95497 -0.0544647
0.193044 0.954783 -0.0545998
0.160701 0.960078 -0.0543419
0.182155 0.959869 -0.0549991
0.192883 0.964766 -0.0552476
0.171278 0.964961 -0.0550968
0.204387 0.909741 -0.0514987
0.235917 0.914476 -0.0515341
0.256616 0.914327 -0.0515531
0.225547 0.909567 -0.0511877
0.246313 0.90941 -0.0512852
0.204253 0.919731 -0.0521498
0.246224 0.919393 -0.051936
0.214934 0.914644 -0.0516474
0.225434 0.919556 -0.0518238
0.204108 0.929719 -0.0528065
0.203986 0.939709 -0.0534342
0.203854 0.949697 -0.054073
0.20373 0.959688 -0.0547021
0.214788 0.924634 -0.0523369
0.23581 0.924468 -0.0521557
0.256545 0.924318 -0.0521651
0.225306 0.929542 -0.0524922
0.246127 0.929384 -0.0525906
0.214673 0.934623 -0.0529609
0.235719 0.934455 -0.0527666
0.256471 0.934304 -0.0528084
0.246058 0.939367 -0.053197
0.225197 0.939531 -0.0531179
0.214553 0.944607 -0.0536129
0.235622 0.944443 -0.0533819
0.2564 0.94429 -0.0534356
0.225074 0.949516 -0.0537899
0.245977 0.949358 -0.0538144
0.214447 0.954598 -0.054228
0.235535 0.954428 -0.0540139
0.256339 0.954274 -0.0540585
0.214334 0.964581 -0.0548625
0.245903 0.959341 -0.0544374
0.224975 0.959505 -0.0544193
0.235442 0.964414 -0.0546404
0.256265 0.964259 -0.0546864
0.266844 0.909255 -0.0512051
0.287324 0.909143 -0.0515948
0.307769 0.909057 -0.0516315
0.29759 0.904114 -0.0512708
0.318014 0.904027 -0.0513454
0.287425 0.899165 -0.0509622
0.307847 0.899078 -0.0509992
0.277156 0.904213 -0.0510285
0.266889 0.899271 -0.0505698
0.28749 0.889178 -0.0503175
0.307903 0.88909 -0.0503623
0.277232 0.894227 -0.050403
0.297669 0.894134 -0.0506423
0.318072 0.894046 -0.0507026
0.266976 0.889285 -0.0499498
0.297724 0.884143 -0.0500361
0.318118 0.884055 -0.0500778
0.287579 0.879202 -0.0496804
0.30797 0.879114 -0.0497105
0.277342 0.884245 -0.0498269
0.287655 0.869212 -0.049037
0.308032 0.869123 -0.0490777
0.267101 0.879311 -0.049319
0.277423 0.874261 -0.0492007
0.297807 0.874166 -0.0493972
0.318178 0.874077 -0.049421
0.297875 0.864177 -0.048779
0.31823 0.864087 -0.0487923
0.267201 0.869321 -0.0487107
0.378885 0.903793 -0.0517645
0.328118 0.908958 -0.0518594
0.348454 0.908873 -0.051947
0.368722 0.908809 -0.0521136
0.348489 0.898889 -0.0512965
0.368749 0.898825 -0.0514615
0.338309 0.903926 -0.0516
0.358605 0.903853 -0.0516825
0.358636 0.893864 -0.0510418
0.378898 0.89381 -0.0511032
0.328178 0.898979 -0.0511849
0.338346 0.89394 -0.0509504
0.358657 0.883879 -0.050403
0.378911 0.883827 -0.0504573
0.328219 0.888991 -0.0505244
0.348526 0.888909 -0.0506343
0.36877 0.888845 -0.0507982
0.348557 0.878928 -0.0499829
0.368795 0.878864 -0.0501385
0.338389 0.883958 -0.0503116
0.368822 0.868875 -0.0495117
0.338432 0.873975 -0.0496577
0.358687 0.873903 -0.0497355
0.378925 0.87385 -0.0497848
0.328271 0.879015 -0.049855
0.358717 0.863915 -0.0491072
0.378944 0.863863 -0.0491443
0.328317 0.869026 -0.0492414
0.348598 0.868945 -0.0493488
0.328372 0.859036 -0.0486133
0.348641 0.858957 -0.0487148
0.368847 0.858893 -0.0488522
0.338485 0.863993 -0.0490146
0.277035 0.91419 -0.0516399
0.297523 0.914099 -0.0519029
0.317962 0.914012 -0.0519923
0.266784 0.919246 -0.0518137
0.287245 0.919132 -0.0522083
0.307708 0.919047 -0.052229
0.297431 0.924081 -0.0525294
0.317895 0.923995 -0.0526155
0.276951 0.924178 -0.0522423
0.266724 0.929232 -0.0524508
0.28714 0.929111 -0.0528352
0.307627 0.929027 -0.0528713
0.266668 0.939218 -0.0530649
0.26662 0.949201 -0.0537003
0.266567 0.959191 -0.0543023
0.27683 0.934156 -0.0528687
0.297359 0.93407 -0.0531729
0.317837 0.933984 -0.0532578
0.287064 0.939095 -0.053446
0.307571 0.939012 -0.053509
0.297267 0.944045 -0.0538352
0.317769 0.943959 -0.0539207
0.276752 0.944136 -0.0534775
0.286962 0.949072 -0.0540791
0.307501 0.948987 -0.0541475
0.276682 0.954117 -0.0540811
0.3177 0.953937 -0.0545664
0.297204 0.954031 -0.0544675
0.286892 0.95906 -0.0546693
0.307442 0.958975 -0.0547482
0.276643 0.964101 -0.0546969
0.297118 0.964005 -0.0551015
0.31765 0.96392 -0.0552139
0.338251 0.913903 -0.0522699
0.358571 0.91383 -0.0523581
0.378862 0.913775 -0.0524469
0.328072 0.91895 -0.0524767
0.348406 0.918854 -0.0525978
0.368692 0.91879 -0.0527666
0.378845 0.923754 -0.0531182
0.338204 0.923891 -0.0528977
0.35854 0.923817 -0.0529913
0.328012 0.928931 -0.0531301
0.348365 0.928842 -0.0532411
0.368662 0.928777 -0.0534098
0.338145 0.933872 -0.0535533
0.378824 0.933738 -0.0537772
0.358503 0.933799 -0.0536416
0.327965 0.938918 -0.0537754
0.368639 0.938754 -0.0540578
0.348328 0.938826 -0.0538725
0.378807 0.943719 -0.0544357
0.338099 0.943856 -0.0542034
0.358468 0.943782 -0.05428
0.32791 0.948896 -0.0544321
0.348286 0.948803 -0.054538
0.368612 0.948737 -0.0547016
0.327871 0.958884 -0.0550548
0.327813 0.968863 -0.0557202
0.338047 0.953834 -0.0548726
0.358435 0.953759 -0.0549305
0.378787 0.953703 -0.0550783
0.368588 0.958718 -0.0553377
0.348251 0.958791 -0.0551456
0.378772 0.963678 -0.0557473
0.338009 0.963817 -0.0555411
0.358407 0.963742 -0.0555608
0.348205 0.968768 -0.0558043
0.368563 0.968702 -0.0559789
0.40918 0.908713 -0.052157
0.429419 0.908686 -0.0521394
0.399093 0.903749 -0.051745
0.419314 0.903713 -0.0518591
0.439512 0.903693 -0.0517533
0.388946 0.908758 -0.0520412
0.388977 0.898777 -0.051375
0.409201 0.898738 -0.051487
0.429421 0.898711 -0.051473
0.409212 0.888752 -0.0508436
0.429424 0.888726 -0.0508274
0.399124 0.893767 -0.0510964
0.419326 0.893731 -0.0512097
0.439508 0.893712 -0.0511005
0.399137 0.883783 -0.0504568
0.419332 0.883747 -0.0505671
0.439508 0.883728 -0.0504544
0.389023 0.888798 -0.0507236
0.389052 0.878818 -0.0500659
0.409233 0.878778 -0.050181
0.429429 0.878752 -0.0501611
0.409248 0.86879 -0.049551
0.429437 0.868764 -0.0495316
0.399169 0.873808 -0.0497988
0.419347 0.873772 -0.0499102
0.439505 0.873753 -0.0497949
0.399192 0.863821 -0.0491569
0.41936 0.863785 -0.049267
0.439511 0.863766 -0.0491509
0.3891 0.868836 -0.0494362
0.419376 0.853802 -0.0486217
0.389136 0.85885 -0.0487863
0.409274 0.85881 -0.0488988
0.429447 0.858784 -0.0488771
0.449602 0.908663 -0.0521631
0.459688 0.903669 -0.0518835
0.479858 0.903667 -0.0517329
0.469769 0.908659 -0.052121
0.489927 0.908658 -0.052058
0.449596 0.898687 -0.0514956
0.469764 0.898676 -0.0514595
0.489917 0.898675 -0.0513964
0.449596 0.888703 -0.0508453
0.459676 0.893687 -0.0512311
0.479829 0.893685 -0.0510818
0.459672 0.883704 -0.0505861
0.479819 0.883701 -0.0504364
0.469743 0.888697 -0.0508053
0.489882 0.888695 -0.0507431
0.449593 0.878729 -0.0501781
0.469741 0.878717 -0.0501445
0.489872 0.878716 -0.0500836
0.449601 0.868741 -0.0495503
0.469739 0.868729 -0.0495155
0.459663 0.873729 -0.0499274
0.479793 0.873726 -0.0497796
0.459667 0.863743 -0.0492873
0.479789 0.86374 -0.0491403
0.489837 0.868734 -0.0494522
0.459672 0.85376 -0.0486465
0.449604 0.858761 -0.0488963
0.469724 0.85875 -0.0488618
0.489827 0.858748 -0.0488044
0.399075 0.913731 -0.0524164
0.419302 0.913694 -0.0525266
0.439509 0.913675 -0.0524254
0.388891 0.918738 -0.0526872
0.409166 0.918701 -0.0527976
0.429411 0.918674 -0.0527722
0.399044 0.92371 -0.0530682
0.419291 0.923674 -0.0531646
0.439513 0.923654 -0.0530712
0.409143 0.92868 -0.0534614
0.388857 0.928724 -0.0533412
0.429404 0.928661 -0.0534305
0.399026 0.933693 -0.0537217
0.419281 0.933657 -0.0538252
0.439508 0.933637 -0.0537368
0.38881 0.938701 -0.0539824
0.409129 0.938665 -0.0541004
0.429401 0.938637 -0.054087
0.398996 0.943673 -0.0543681
0.419272 0.943638 -0.0544752
0.439513 0.943617 -0.0543863
0.40911 0.948641 -0.0547585
0.429398 0.948613 -0.0547545
0.388779 0.948684 -0.0546281
0.398978 0.953657 -0.0550062
0.419265 0.953622 -0.0551224
[...]
POINT_DATA 19190
VECTORS alpha float
1.23919e-06 -1.01878e-08 -1.78132e-08
1.21401e-06 -9.93116e-09 -1.39538e-08
1.19027e-06 -9.68883e-09 -1.07535e-08
-3.69518e-07 1.68464e-05 -1.07645e-06
1.16604e-06 -9.38921e-09 -5.43759e-09
-3.49061e-07 1.68711e-05 -1.0341e-06
1.14323e-06 -9.11723e-09 -3.76501e-09
-3.37479e-07 1.68945e-05 -1.04053e-06
1.11911e-06 -8.83142e-09 -7.5256e-10
-3.4317e-07 1.69191e-05 -1.04968e-06
1.09534e-06 -8.55344e-09 -1.9264e-09
-3.30478e-07 1.69424e-05 -1.02985e-06
1.1539e-06 -8.7035e-09 -1.15387e-07
-2.5697e-07 1.98476e-05 -1.28881e-06
1.19321e-06 -9.10665e-09 7.58477e-08
-2.0474e-07 1.96502e-05 -1.31941e-06
-2.59129e-07 1.98726e-05 -1.30517e-06
-1.99457e-07 1.9674e-05 -1.31738e-06
1.15326e-06 -9.21638e-09 5.90463e-08
1.16595e-06 -8.79244e-09 7.32921e-08
1.14144e-06 -8.48038e-09 7.20713e-08
-2.8905e-07 1.88585e-05 -1.15311e-06
-2.5995e-07 1.98965e-05 -1.2942e-06
-1.99515e-07 1.96978e-05 -1.308e-06
1.12662e-06 -8.90635e-09 5.78202e-08
-2.49174e-07 1.99192e-05 -1.29306e-06
-1.90377e-07 1.97203e-05 -1.31114e-06
1.10308e-06 -8.59005e-09 5.82921e-08
-3.0257e-07 1.88834e-05 -1.19672e-06
1.11388e-06 -8.18482e-09 7.00641e-08
1.09504e-06 -7.93762e-09 6.89391e-08
-2.49092e-07 1.99416e-05 -1.28759e-06
-1.93582e-07 1.97424e-05 -1.3094e-06
1.07657e-06 -8.29208e-09 5.73494e-08
-3.15779e-07 1.89073e-05 -1.1672e-06
1.2234e-06 -8.89321e-09 6.45277e-08
1.19562e-06 -8.5846e-09 6.25204e-08
-1.43971e-07 1.84641e-05 -1.24503e-06
-1.05537e-07 1.66962e-05 -1.118e-06
-7.53952e-08 1.47386e-05 -1.00154e-06
-1.45238e-07 1.84872e-05 -1.24246e-06
-1.04128e-07 1.67171e-05 -1.12639e-06
-7.26714e-08 1.47581e-05 -1.0008e-06
1.27539e-06 -7.43756e-09 3.84461e-08
1.24761e-06 -8.31558e-09 4.45602e-08
1.21998e-06 -7.97435e-09 4.47382e-08
1.24754e-06 -7.18064e-09 3.76125e-08
1.17077e-06 -8.27329e-09 6.14272e-08
-1.49039e-07 1.85089e-05 -1.24216e-06
-1.06771e-07 1.67375e-05 -1.13142e-06
-7.43089e-08 1.47765e-05 -9.98166e-07
-1.48427e-07 1.85312e-05 -1.23401e-06
-1.02749e-07 1.67582e-05 -1.12718e-06
-7.2317e-08 1.47955e-05 -9.96388e-07
1.19427e-06 -7.70034e-09 4.44521e-08
1.2217e-06 -6.96026e-09 3.71898e-08
1.14303e-06 -8.00417e-09 6.00109e-08
1.16621e-06 -7.39996e-09 4.49391e-08
1.19393e-06 -6.73522e-09 3.68611e-08
1.21711e-06 -9.3731e-09 7.84703e-08
1.17675e-06 -9.47975e-09 6.0356e-08
-2.5903e-07 1.98222e-05 -1.29437e-06
-2.07784e-07 1.96254e-05 -1.32217e-06
-2.93877e-07 1.88332e-05 -1.17858e-06
1.24457e-06 -9.6799e-09 8.06765e-08
-2.19737e-07 1.96024e-05 -1.31117e-06
1.20369e-06 -9.76867e-09 6.23814e-08
-2.98325e-07 1.88087e-05 -1.17478e-06
1.27049e-06 -1.00503e-08 8.20605e-08
1.22808e-06 -1.00468e-08 6.25459e-08
-2.59652e-07 1.97985e-05 -1.2747e-06
-3.57547e-07 1.87054e-05 -1.19288e-06
-3.27401e-07 1.87332e-05 -1.14507e-06
-3.02242e-07 1.87581e-05 -1.162e-06
-3.10276e-07 1.87845e-05 -1.19853e-06
-2.67514e-07 1.97739e-05 -1.29408e-06
-2.21642e-07 1.95776e-05 -1.32356e-06
1.29928e-06 -1.04238e-08 8.47441e-08
1.25654e-06 -1.03629e-08 6.20592e-08
-2.13749e-07 1.95515e-05 -1.32281e-06
-2.58034e-07 1.97477e-05 -1.28017e-06
1.28031e-06 -1.06411e-08 5.9196e-08
1.32618e-06 -1.0751e-08 8.63839e-08
-2.57679e-07 1.97215e-05 -1.27446e-06
-2.17429e-07 1.95259e-05 -1.32899e-06
1.30678e-06 -1.09118e-08 5.6879e-08
1.35535e-06 -1.11267e-08 8.80117e-08
-2.20936e-07 1.94989e-05 -1.31966e-06
-2.57471e-07 1.96922e-05 -1.28672e-06
1.24809e-06 -9.10589e-09 6.74999e-08
-1.08616e-07 1.66745e-05 -1.11516e-06
-7.37157e-08 1.47186e-05 -9.99433e-07
1.27207e-06 -8.49877e-09 4.60008e-08
1.30059e-06 -7.61929e-09 3.92857e-08
1.27554e-06 -9.43556e-09 6.98195e-08
1.33018e-06 -7.8475e-09 4.14073e-08
-1.47367e-07 1.84405e-05 -1.24592e-06
1.30092e-06 -8.81e-09 4.73357e-08
1.30106e-06 -9.68783e-09 7.22804e-08
1.32932e-06 -1.00195e-08 7.47296e-08
1.35618e-06 -1.02885e-08 7.66434e-08
1.38516e-06 -1.06183e-08 7.85436e-08
-1.53982e-07 1.84184e-05 -1.22655e-06
-1.09458e-07 1.66536e-05 -1.10521e-06
-7.10136e-08 1.46994e-05 -9.85683e-07
1.32742e-06 -9.01899e-09 4.90467e-08
1.35613e-06 -8.07147e-09 4.2677e-08
-1.52986e-07 1.83956e-05 -1.2258e-06
-1.09008e-07 1.66321e-05 -1.10781e-06
-7.31578e-08 1.46804e-05 -9.80531e-07
1.38643e-06 -8.3214e-09 4.41178e-08
1.35662e-06 -9.33647e-09 5.05862e-08
-1.50211e-07 1.83711e-05 -1.22946e-06
-1.09828e-07 1.66091e-05 -1.11413e-06
-7.32136e-08 1.46593e-05 -9.77163e-07
1.38359e-06 -9.56253e-09 5.21724e-08
1.41437e-06 -8.61399e-09 4.45967e-08
-1.50265e-07 1.8347e-05 -1.22894e-06
-1.06926e-07 1.65869e-05 -1.11615e-06
-7.35149e-08 1.46389e-05 -9.83079e-07
-1.53727e-07 1.8322e-05 -1.23286e-06
1.4444e-06 -8.8625e-09 4.55758e-08
1.41255e-06 -9.85019e-09 5.36503e-08
-1.08924e-07 1.6563e-05 -1.11349e-06
-7.95383e-08 1.46173e-05 -9.88198e-07
1.33066e-06 -6.76073e-09 2.74302e-08
1.3563e-06 -5.53021e-09 2.47951e-08
1.38322e-06 -4.9524e-09 2.30306e-08
-1.635e-08 1.12054e-05 -7.71954e-07
-1.72662e-08 9.77038e-06 -6.89141e-07
1.33008e-06 -5.41993e-09 2.51395e-08
1.35678e-06 -4.85855e-09 2.3352e-08
-3.27041e-08 1.28658e-05 -8.71506e-07
1.30538e-06 -6.59241e-09 2.68062e-08
1.30138e-06 -5.26172e-09 2.48032e-08
1.32773e-06 -4.69714e-09 2.32621e-08
-3.36273e-08 1.28835e-05 -8.71301e-07
-2.01007e-08 1.12207e-05 -7.7029e-07
-1.80409e-08 9.78428e-06 -6.85343e-07
1.27676e-06 -6.3369e-09 2.67226e-08
-2.17528e-08 1.12354e-05 -7.69489e-07
-1.76861e-08 9.7976e-06 -6.83835e-07
1.27406e-06 -5.11056e-09 2.52057e-08
1.29993e-06 -4.56329e-09 2.31511e-08
-3.70834e-08 1.29003e-05 -8.74354e-07
1.24544e-06 -4.98617e-09 2.50483e-08
1.27087e-06 -4.43245e-09 2.27482e-08
1.2496e-06 -6.10063e-09 2.72232e-08
-3.90785e-08 1.29173e-05 -8.77948e-07
-2.49333e-08 1.12503e-05 -7.72796e-07
-1.86634e-08 9.81112e-06 -6.85337e-07
-2.49407e-08 1.12647e-05 -7.70399e-07
-1.76192e-08 9.82402e-06 -6.87327e-07
1.22107e-06 -5.89037e-09 2.73651e-08
-1.29424e-08 6.30578e-06 -4.45376e-07
1.40814e-06 -4.36871e-09 2.31237e-08
1.42718e-06 -3.40731e-09 2.3769e-08
1.44726e-06 -2.82115e-09 2.34345e-08
1.40048e-06 -3.29576e-09 2.35737e-08
1.42028e-06 -2.74088e-09 2.31802e-08
-1.01371e-08 8.51792e-06 -6.01383e-07
-9.37703e-09 7.38137e-06 -5.16724e-07
-8.15656e-09 7.39199e-06 -5.15765e-07
-1.18347e-08 6.31489e-06 -4.45201e-07
1.38117e-06 -4.3133e-09 2.24968e-08
-1.03274e-08 8.53033e-06 -5.98969e-07
-9.68625e-09 7.40243e-06 -5.15176e-07
-1.20807e-08 6.3239e-06 -4.45389e-07
1.35148e-06 -4.19257e-09 2.17406e-08
1.37004e-06 -3.2348e-09 2.31867e-08
1.38964e-06 -2.69587e-09 2.26392e-08
1.34175e-06 -3.10776e-09 2.30998e-08
1.36096e-06 -2.58823e-09 2.25554e-08
-1.22444e-08 8.54188e-06 -5.98819e-07
1.33103e-06 -2.48511e-09 2.23872e-08
-1.23534e-08 8.55392e-06 -5.97931e-07
-1.08123e-08 7.41293e-06 -5.14679e-07
-1.23711e-08 6.33293e-06 -4.4607e-07
1.3229e-06 -4.06144e-09 2.15647e-08
-1.04186e-08 7.42292e-06 -5.14801e-07
-1.12223e-08 6.34157e-06 -4.46199e-07
1.29332e-06 -3.89044e-09 2.17428e-08
1.3116e-06 -3.03053e-09 2.29622e-08
1.27019e-06 -3.7405e-09 2.19129e-08
1.28807e-06 -2.9291e-09 2.31332e-08
1.30644e-06 -2.43598e-09 2.19089e-08
-1.29161e-08 8.56536e-06 -5.96881e-07
-3.05995e-08 1.2848e-05 -8.71673e-07
-1.66904e-08 1.11893e-05 -7.76117e-07
-1.87886e-08 9.756e-06 -6.88745e-07
1.35994e-06 -7.00112e-09 2.7878e-08
1.38607e-06 -5.707e-09 2.41468e-08
1.41332e-06 -5.12916e-09 2.22051e-08
-1.53284e-08 1.11739e-05 -7.66137e-07
-1.80729e-08 9.74266e-06 -6.84766e-07
-2.80345e-08 1.28308e-05 -8.55434e-07
1.38681e-06 -7.13517e-09 2.9434e-08
1.41381e-06 -5.83661e-09 2.39596e-08
1.44127e-06 -5.23012e-09 2.24407e-08
1.41679e-06 -7.35669e-09 3.06129e-08
1.44465e-06 -7.50203e-09 3.15589e-08
1.47468e-06 -7.757e-09 3.18409e-08
-2.86174e-08 1.28132e-05 -8.46299e-07
-1.59847e-08 1.11578e-05 -7.55664e-07
-1.90067e-08 9.72861e-06 -6.79772e-07
1.44417e-06 -5.99457e-09 2.38074e-08
1.47215e-06 -5.34719e-09 2.31508e-08
-1.26221e-08 1.1141e-05 -7.49808e-07
-1.77863e-08 9.7137e-06 -6.77365e-07
-2.67633e-08 1.27942e-05 -8.40774e-07
1.47347e-06 -6.14807e-09 2.33503e-08
1.50177e-06 -5.46046e-09 2.32617e-08
-2.41314e-08 1.27754e-05 -8.48036e-07
-1.48843e-08 9.69911e-06 -6.75054e-07
-9.78519e-09 1.11238e-05 -7.45777e-07
1.50386e-06 -6.3524e-09 2.20569e-08
1.53236e-06 -5.63076e-09 2.23333e-08
-2.77467e-08 1.2756e-05 -8.59254e-07
-8.14831e-09 1.11063e-05 -7.43717e-07
-1.63511e-08 9.68358e-06 -6.72911e-07
-9.38816e-09 8.50544e-06 -5.99741e-07
-8.92763e-09 7.37033e-06 -5.1541e-07
-1.39904e-08 6.29619e-06 -4.45477e-07
1.43888e-06 -4.50838e-09 2.31563e-08
1.45892e-06 -3.49666e-09 2.39813e-08
1.47923e-06 -2.88014e-09 2.39927e-08
-1.37589e-08 6.28713e-06 -4.44428e-07
-8.92445e-09 8.49334e-06 -5.99636e-07
-8.27899e-09 7.35966e-06 -5.14483e-07
1.46706e-06 -4.56821e-09 2.37217e-08
1.48712e-06 -3.65384e-09 2.39964e-08
1.50768e-06 -3.00606e-09 2.40764e-08
-8.36593e-09 8.48114e-06 -5.97023e-07
-1.41284e-08 6.27736e-06 -4.41879e-07
-7.94946e-09 7.34902e-06 -5.09873e-07
1.49835e-06 -4.64483e-09 2.47362e-08
1.54013e-06 -3.06786e-09 2.45276e-08
1.51886e-06 -3.81251e-09 2.40883e-08
-1.46256e-08 6.26785e-06 -4.38682e-07
-7.76678e-09 8.46778e-06 -5.94336e-07
-7.54313e-09 7.33732e-06 -5.07263e-07
1.52833e-06 -4.71915e-09 2.52237e-08
1.54934e-06 -3.90201e-09 2.42836e-08
1.57027e-06 -3.18097e-09 2.44998e-08
1.55972e-06 -4.88305e-09 2.5136e-08
1.59141e-06 -4.96737e-09 2.54327e-08
-5.14526e-09 8.45492e-06 -5.91705e-07
-5.73824e-09 7.3263e-06 -5.03608e-07
-1.4562e-08 6.25808e-06 -4.3779e-07
1.60304e-06 -3.25278e-09 2.46372e-08
1.58118e-06 -4.07761e-09 2.40024e-08
-1.47787e-08 6.24776e-06 -4.36262e-07
-5.64009e-09 8.44093e-06 -5.90505e-07
-5.92164e-09 7.31411e-06 -5.02755e-07
1.61332e-06 -4.19791e-09 2.4189e-08
1.63472e-06 -3.41148e-09 2.481e-08
1.47598e-06 -1.5778e-09 1.39387e-08
1.48879e-06 -1.30632e-09 1.31491e-08
3.34861e-09 5.25459e-06 -3.73271e-07
-7.84937e-10 4.20644e-06 -3.0124e-07
-3.07285e-09 3.15634e-06 -2.27153e-07
1.46307e-06 -2.26818e-09 1.42946e-08
1.43545e-06 -2.19426e-09 1.35951e-08
1.44761e-06 -1.55869e-09 1.34365e-08
1.46012e-06 -1.27703e-09 1.28771e-08
1.41671e-06 -1.50125e-09 1.3222e-08
1.42901e-06 -1.2396e-09 1.26491e-08
2.70851e-09 5.26212e-06 -3.7333e-07
-9.58272e-10 4.2125e-06 -3.01564e-07
-2.81767e-09 3.16091e-06 -2.27328e-07
1.74887e-09 5.2696e-06 -3.7397e-07
-1.52302e-09 4.21859e-06 -3.01252e-07
-2.94024e-09 3.16552e-06 -2.26941e-07
1.40382e-06 -2.06541e-09 1.30083e-08
1.37441e-06 -1.96873e-09 1.2936e-08
1.38641e-06 -1.4467e-09 1.30635e-08
1.39843e-06 -1.21292e-09 1.23731e-08
1.35619e-06 -1.40748e-09 1.29621e-08
1.36807e-06 -1.1968e-09 1.21321e-08
9.39613e-10 5.27721e-06 -3.7329e-07
-2.05313e-09 4.2247e-06 -3.00906e-07
-3.07641e-09 3.17011e-06 -2.26779e-07
7.98924e-10 5.28443e-06 -3.72913e-07
-2.2565e-09 4.23051e-06 -3.00781e-07
-3.01526e-09 3.17449e-06 -2.26748e-07
1.34339e-06 -1.86783e-09 1.27248e-08
-2.96843e-09 4.23621e-06 -3.01197e-07
1.3188e-06 -1.79523e-09 1.28104e-08
1.33062e-06 -1.37059e-09 1.2919e-08
1.34221e-06 -1.18296e-09 1.18854e-08
1.49699e-06 -5.85891e-10 1.22594e-08
-8.72908e-10 2.10446e-06 -1.51398e-07
-5.05872e-10 1.05212e-06 -7.57013e-08
1.50202e-06 -1.72251e-10 1.11749e-08
1.50381e-06 3.10117e-11 -1.88354e-09
1.46814e-06 -5.65723e-10 1.21719e-08
1.47373e-06 -1.75226e-10 1.09496e-08
1.47551e-06 1.44267e-12 -1.82395e-09
1.43686e-06 -5.49734e-10 1.20205e-08
-9.05992e-10 2.10754e-06 -1.51062e-07
-4.17589e-10 1.05366e-06 -7.55361e-08
-1.01805e-09 2.11062e-06 -1.50738e-07
-3.86892e-10 1.05521e-06 -7.53823e-08
1.44173e-06 -1.92051e-10 1.06361e-08
1.44353e-06 -3.83872e-11 -1.82954e-09
1.40602e-06 -5.27211e-10 1.16869e-08
1.41139e-06 -1.74521e-10 1.03842e-08
1.41313e-06 -4.24425e-11 -1.9315e-09
1.37554e-06 -5.06251e-10 1.1635e-08
1.38085e-06 -1.63917e-10 1.0153e-08
-1.15246e-09 2.1137e-06 -1.5068e-07
-3.86918e-10 1.05675e-06 -7.53565e-08
-1.14094e-09 2.11664e-06 -1.50546e-07
-3.28291e-10 1.05822e-06 -7.52969e-08
1.38202e-06 -7.17626e-11 -2.066e-09
-1.18982e-09 2.11951e-06 -1.50799e-07
1.34941e-06 -4.94149e-10 1.14409e-08
1.35458e-06 -1.71096e-10 9.85666e-09
1.35628e-06 -8.08117e-11 -2.19965e-09
3.354e-09 5.24662e-06 -3.72874e-07
-7.103e-10 4.20002e-06 -3.00956e-07
-3.20748e-09 3.1515e-06 -2.26906e-07
1.49574e-06 -2.39197e-09 1.49175e-08
1.50783e-06 -1.61365e-09 1.41825e-08
1.52083e-06 -1.35019e-09 1.30579e-08
3.01842e-09 5.23896e-06 -3.72243e-07
-5.80282e-12 4.19397e-06 -2.98473e-07
-3.00929e-09 3.14692e-06 -2.25289e-07
1.53754e-06 -1.6586e-09 1.43141e-08
1.52473e-06 -2.52388e-09 1.53912e-08
1.55018e-06 -1.40374e-09 1.32218e-08
2.83799e-09 5.23072e-06 -3.70325e-07
7.17927e-11 4.18727e-06 -2.98617e-07
-3.13318e-09 3.14188e-06 -2.25312e-07
1.55809e-06 -2.6907e-09 1.63275e-08
1.56989e-06 -1.6797e-09 1.46339e-08
1.58364e-06 -1.44749e-09 1.37653e-08
2.54324e-09 5.22271e-06 -3.68733e-07
2.4184e-10 4.1809e-06 -2.97078e-07
-3.21379e-09 3.13707e-06 -2.24195e-07
1.60167e-06 -1.7122e-09 1.49659e-08
1.61567e-06 -1.47712e-09 1.41575e-08
1.58899e-06 -2.83618e-09 1.67879e-08
2.29544e-09 5.21451e-06 -3.68559e-07
3.65933e-10 4.17432e-06 -2.97416e-07
-3.36421e-09 3.13211e-06 -2.24541e-07
1.62202e-06 -2.8554e-09 1.7444e-08
1.63439e-06 -1.75227e-09 1.49539e-08
1.64868e-06 -1.51317e-09 1.4349e-08
2.51385e-09 5.20578e-06 -3.67964e-07
2.62853e-10 4.16735e-06 -2.97355e-07
-3.57651e-09 3.12688e-06 -2.24156e-07
1.654e-06 -2.94972e-09 1.80463e-08
1.66665e-06 -1.79715e-09 1.51673e-08
1.68122e-06 -1.54281e-09 1.46978e-08
-9.14089e-10 2.10118e-06 -1.51724e-07
-5.37518e-10 1.05048e-06 -7.58121e-08
1.52919e-06 -6.18217e-10 1.22786e-08
1.53498e-06 -1.73503e-10 1.1557e-08
1.5368e-06 4.79753e-11 -1.67563e-09
-7.64385e-10 2.0981e-06 -1.50805e-07
-5.46886e-10 1.04894e-06 -7.54002e-08
1.55875e-06 -6.61982e-10 1.24081e-08
1.5647e-06 -1.82569e-10 1.2e-08
1.56657e-06 5.31538e-11 -1.61837e-09
-7.42316e-10 2.09472e-06 -1.50904e-07
-5.72799e-10 1.04725e-06 -7.54306e-08
1.59237e-06 -7.02315e-10 1.27604e-08
1.59841e-06 -1.82785e-10 1.2682e-08
1.60029e-06 8.55972e-11 -1.48506e-09
-7.51847e-10 2.09152e-06 -1.49917e-07
-6.34193e-10 1.04564e-06 -7.49945e-08
1.62381e-06 -7.4324e-10 1.28432e-08
1.62996e-06 -1.89405e-10 1.29086e-08
1.63188e-06 9.56448e-11 -1.63976e-09
-7.19968e-10 2.08819e-06 -1.49953e-07
-6.88167e-10 1.04397e-06 -7.50456e-08
1.6579e-06 -7.83687e-10 1.31132e-08
1.6641e-06 -1.80175e-10 1.32765e-08
1.66604e-06 1.37554e-10 -1.49003e-09
-7.50941e-10 2.08473e-06 -1.49712e-07
-7.41118e-10 1.04223e-06 -7.49439e-08
1.69071e-06 -8.46482e-10 1.32508e-08
1.69702e-06 -2.10193e-10 1.33526e-08
1.69902e-06 1.37752e-10 -1.50792e-09
-9.75098e-14 1.02266e-10 -7.36953e-12
4.5836e-14 1.02086e-10 -7.40862e-12
4.43337e-14 1.01619e-10 -7.34738e-12
3.35014e-14 1.0124e-10 -7.29274e-12
1.50267e-06 1.54303e-10 -1.18413e-08
1.49693e-06 5.86951e-10 -1.21084e-08
5.27913e-14 1.02699e-10 -7.44153e-12
-5.25928e-10 -1.05192e-06 7.61476e-08
-1.02793e-09 -2.10426e-06 1.52303e-07
1.50373e-06 -5.63115e-11 1.72098e-09
-9.33905e-10 -2.10734e-06 1.51757e-07
1.47542e-06 -3.91305e-11 1.59007e-09
1.47372e-06 1.65691e-10 -1.15868e-08
1.46808e-06 5.66741e-10 -1.19633e-08
1.44236e-06 1.63416e-10 -1.13246e-08
1.43682e-06 5.50284e-10 -1.18084e-08
3.49575e-14 1.03391e-10 -7.46199e-12
-4.40411e-10 -1.05346e-06 7.5966e-08
2.43179e-14 1.03927e-10 -7.4718e-12
-4.09749e-10 -1.05499e-06 7.57844e-08
-1.15122e-09 -2.1104e-06 1.51558e-07
1.44346e-06 3.26086e-12 1.62326e-09
-1.137e-09 -2.11346e-06 1.51305e-07
1.41309e-06 7.76122e-12 1.70633e-09
1.41143e-06 1.63695e-10 -1.09653e-08
1.40601e-06 5.26475e-10 -1.15539e-08
1.38251e-06 1.63353e-11 1.80159e-09
1.38086e-06 1.51733e-10 -1.07324e-08
1.37552e-06 5.04613e-10 -1.15912e-08
1.83057e-14 1.0444e-10 -7.49408e-12
-4.09011e-10 -1.05652e-06 7.57415e-08
8.53329e-15 1.04903e-10 -7.52161e-12
-3.58903e-10 -1.05799e-06 7.57839e-08
-1.26919e-09 -2.1164e-06 1.51531e-07
-1.32635e-09 -2.11929e-06 1.5144e-07
1.35626e-06 4.41172e-11 1.96317e-09
1.35465e-06 1.54988e-10 -1.04611e-08
1.3494e-06 4.9202e-10 -1.1452e-08
1.48881e-06 1.32818e-09 -1.33912e-08
1.476e-06 1.56843e-09 -1.40716e-08
-3.10336e-09 -3.15615e-06 2.28389e-07
-1.05915e-09 -4.20628e-06 3.02726e-07
3.26453e-09 -5.25439e-06 3.73762e-07
1.46309e-06 2.26456e-09 -1.43938e-08
-9.03336e-10 -4.21233e-06 3.02603e-07
1.46017e-06 1.30228e-09 -1.31728e-08
1.44764e-06 1.54891e-09 -1.35733e-08
1.43547e-06 2.19099e-09 -1.36958e-08
1.42908e-06 1.26193e-09 -1.29046e-08
1.41674e-06 1.49241e-09 -1.33741e-08
-2.86429e-09 -3.16071e-06 2.28557e-07
2.59047e-09 -5.26193e-06 3.73905e-07
-2.98218e-09 -3.1653e-06 2.2803e-07
-1.70599e-09 -4.21837e-06 3.02362e-07
1.5893e-09 -5.26942e-06 3.74648e-07
1.40385e-06 2.06291e-09 -1.31237e-08
-1.86028e-09 -4.22444e-06 3.01701e-07
1.39852e-06 1.2328e-09 -1.26813e-08
1.38645e-06 1.43846e-09 -1.32333e-08
1.37444e-06 1.96678e-09 -1.30681e-08
1.36815e-06 1.2156e-09 -1.25021e-08
1.35623e-06 1.39923e-09 -1.31246e-08
-3.10917e-09 -3.16986e-06 2.27904e-07
7.67991e-10 -5.27703e-06 3.73893e-07
-3.11834e-09 -3.17425e-06 2.2828e-07
-2.48093e-09 -4.23025e-06 3.02718e-07
6.7271e-10 -5.28425e-06 3.73376e-07
1.34342e-06 1.86571e-09 -1.28467e-08
-3.13627e-09 -4.23598e-06 3.02842e-07
1.34232e-06 1.19952e-09 -1.23168e-08
1.33065e-06 1.36137e-09 -1.3107e-08
1.31883e-06 1.79293e-09 -1.29465e-08
4.47228e-14 1.01526e-10 -7.32076e-12
4.88047e-14 1.01303e-10 -7.3327e-12
-9.02743e-10 -2.10102e-06 1.52303e-07
-5.41372e-10 -1.05028e-06 7.6185e-08
1.53675e-06 -7.47544e-11 1.52626e-09
1.535e-06 1.68772e-10 -1.20858e-08
1.52916e-06 6.22445e-10 -1.21235e-08
-5.5303e-10 -1.04874e-06 7.57437e-08
-8.51857e-10 -2.09791e-06 1.51468e-07
1.56542e-06 1.65922e-10 -1.24625e-08
1.55947e-06 6.52408e-10 -1.2548e-08
1.56656e-06 -6.74139e-11 1.63647e-09
-5.67713e-10 -1.04705e-06 7.57455e-08
-7.91026e-10 -2.09453e-06 1.51557e-07
1.60029e-06 -8.79971e-11 1.57644e-09
1.59841e-06 1.84452e-10 -1.27424e-08
1.59236e-06 6.97873e-10 -1.27868e-08
-6.31769e-10 -1.04544e-06 7.51885e-08
-7.66518e-10 -2.09133e-06 1.50287e-07
1.63187e-06 -9.52248e-11 1.67002e-09
1.62995e-06 1.91698e-10 -1.29096e-08
1.6238e-06 7.40528e-10 -1.29033e-08
-6.88804e-10 -1.04376e-06 7.51248e-08
-7.17826e-10 -2.08799e-06 1.50136e-07
1.66603e-06 -1.3508e-10 1.53115e-09
1.66409e-06 1.84233e-10 -1.32707e-08
1.65788e-06 7.83877e-10 -1.31357e-08
-7.38371e-10 -1.04203e-06 7.4988e-08
-7.39481e-10 -2.08453e-06 1.4981e-07
1.69898e-06 -1.3504e-10 1.56514e-09
1.69692e-06 2.14685e-10 -1.3334e-08
1.69055e-06 8.47514e-10 -1.32302e-08
-6.35248e-10 -4.1999e-06 3.02489e-07
-3.18311e-09 -3.1513e-06 2.28249e-07
3.29799e-09 -5.24641e-06 3.73355e-07
1.5209e-06 1.37579e-09 -1.33042e-08
1.50784e-06 1.60576e-09 -1.42973e-08
1.49574e-06 2.39022e-09 -1.49973e-08
-3.0512e-09 -3.14674e-06 2.26519e-07
-2.37796e-10 -4.1938e-06 3.00071e-07
2.98265e-09 -5.23876e-06 3.72634e-07
1.55098e-06 1.41833e-09 -1.35593e-08
1.53755e-06 1.64997e-09 -1.44199e-08
1.52473e-06 2.52337e-09 -1.54718e-08
-3.1988e-09 -3.1417e-06 2.26357e-07
-1.47125e-10 -4.1871e-06 2.99983e-07
2.80816e-09 -5.2305e-06 3.70695e-07
1.58366e-06 1.44841e-09 -1.39569e-08
1.5699e-06 1.67197e-09 -1.47302e-08
1.55809e-06 2.68636e-09 -1.63993e-08
-3.2522e-09 -3.13688e-06 2.24951e-07
1.47063e-10 -4.18072e-06 2.97974e-07
2.52519e-09 -5.22249e-06 3.69087e-07
1.61566e-06 1.47922e-09 -1.42148e-08
1.60168e-06 1.70472e-09 -1.50421e-08
1.589e-06 2.8315e-09 -1.68528e-08
-3.38169e-09 -3.1319e-06 2.24982e-07
3.61905e-10 -4.17412e-06 2.97885e-07
2.20316e-09 -5.21431e-06 3.692e-07
1.64866e-06 1.51773e-09 -1.43786e-08
1.63439e-06 1.74729e-09 -1.50289e-08
1.62201e-06 2.85328e-09 -1.75118e-08
-3.58097e-09 -3.12666e-06 2.24468e-07
2.78327e-10 -4.16715e-06 2.97632e-07
2.44343e-09 -5.20556e-06 3.68518e-07
1.68099e-06 1.54784e-09 -1.47037e-08
1.66639e-06 1.79333e-09 -1.52393e-08
1.65366e-06 2.94849e-09 -1.81152e-08
-1.29899e-08 -6.30558e-06 4.45823e-07
1.44727e-06 2.81988e-09 -2.35806e-08
1.42719e-06 3.41136e-09 -2.38739e-08
1.40818e-06 4.37425e-09 -2.32662e-08
1.42029e-06 2.74187e-09 -2.32698e-08
1.40048e-06 3.30256e-09 -2.3632e-08
-9.40222e-09 -7.38117e-06 5.17295e-07
-1.00742e-08 -8.51771e-06 6.01803e-07
-1.19242e-08 -6.3147e-06 4.45749e-07
-8.23196e-09 -7.3918e-06 5.16453e-07
-1.03252e-08 -8.53015e-06 5.99518e-07
1.38123e-06 4.31531e-09 -2.27574e-08
-1.22195e-08 -6.32372e-06 4.46048e-07