# vtk DataFile Version 3.0
vtk output
ASCII
DATASET POLYDATA
POINTS 6969 float
0.189416 0.349829 -0.0197417
0.189436 0.339841 -0.0191528
0.199507 0.344796 -0.0191824
0.209575 0.349752 -0.0192579
0.229711 0.349671 -0.0189712
0.249852 0.349715 -0.0189485
0.269863 0.349779 -0.018889
0.329942 0.349639 -0.0189233
0.349909 0.349608 -0.0188677
0.369856 0.349579 -0.0188702
0.390068 0.349636 -0.0188737
0.450048 0.349574 -0.0188135
0.490017 0.349567 -0.0188012
0.169422 0.349871 -0.0186553
0.189461 0.329854 -0.0186
0.199526 0.334806 -0.0186281
0.209592 0.339756 -0.0186829
0.219655 0.344705 -0.0188168
0.239776 0.344637 -0.0186035
0.259864 0.344823 -0.0186846
0.289847 0.349717 -0.0188211
0.309795 0.349669 -0.0188193
0.319948 0.344665 -0.0186937
0.339923 0.34463 -0.0186067
0.359877 0.344599 -0.0185817
0.380073 0.344656 -0.0186546
0.40005 0.344628 -0.01856
0.41004 0.349592 -0.0188446
0.430017 0.349569 -0.0188149
0.440045 0.344581 -0.0185879
0.460026 0.344573 -0.0185375
0.480009 0.34457 -0.0185356
0.470017 0.349546 -0.0188474
0.15936 0.344924 -0.0183044
0.179517 0.344837 -0.0183519
0.14927 0.34995 -0.0184904
0.229725 0.339675 -0.0183746
0.249869 0.339729 -0.0183374
0.26987 0.339811 -0.0182873
0.279863 0.344761 -0.0185661
0.299822 0.344708 -0.0185223
0.329937 0.339658 -0.0183363
0.349899 0.339623 -0.0182798
0.369841 0.339592 -0.0182842
0.390055 0.339649 -0.0183129
0.420019 0.344587 -0.0185544
0.450023 0.339583 -0.0182801
0.489985 0.339575 -0.0182816
0.810584 0.349829 -0.0197411
0.810564 0.339841 -0.0191522
0.800492 0.344796 -0.0191819
0.790425 0.349752 -0.0192576
0.509983 0.349568 -0.0188076
0.529968 0.34957 -0.0187908
0.549952 0.349575 -0.0188213
0.609933 0.349636 -0.0188799
0.630144 0.349579 -0.0188715
0.650091 0.349607 -0.0188691
0.670058 0.349638 -0.0189247
0.730137 0.349779 -0.0188896
0.750148 0.349715 -0.018949
0.770289 0.349671 -0.0189712
0.500007 0.34457 -0.018588
0.519991 0.34457 -0.0185421
0.539974 0.344574 -0.0185447
0.559955 0.344581 -0.0185968
0.59995 0.344628 -0.0185663
0.619927 0.344657 -0.0186611
0.569983 0.349569 -0.0188215
0.589961 0.349593 -0.0188508
0.640123 0.344598 -0.0185831
0.660077 0.344629 -0.0186082
0.680052 0.344664 -0.0186954
0.740136 0.344823 -0.0186851
0.690205 0.349668 -0.01882
0.710153 0.349717 -0.0188218
0.810539 0.329854 -0.0185995
0.800474 0.334806 -0.0186277
0.790408 0.339756 -0.0186826
0.760224 0.344636 -0.0186036
0.780345 0.344705 -0.0188166
0.830578 0.349871 -0.018654
0.510015 0.339576 -0.0182803
0.549977 0.339584 -0.0182791
0.609946 0.33965 -0.0183127
0.579982 0.344587 -0.0185609
0.630159 0.339591 -0.0182856
0.650101 0.339622 -0.0182812
0.670063 0.339657 -0.0183377
0.73013 0.33981 -0.0182879
0.700178 0.344707 -0.0185231
0.720137 0.34476 -0.0185668
0.750131 0.339729 -0.0183378
0.770275 0.339675 -0.0183747
0.820483 0.344837 -0.0183507
0.84064 0.344924 -0.018303
0.85073 0.34995 -0.0184891
0.118928 0.475496 -0.0233051
0.118922 0.46544 -0.0227428
0.108926 0.470509 -0.0220684
0.118913 0.455388 -0.022203
0.0989608 0.475601 -0.0211947
0.108932 0.460418 -0.0215055
0.118923 0.445236 -0.0216431
0.108926 0.450276 -0.020972
0.0989727 0.465423 -0.0205936
0.118952 0.435103 -0.021045
0.108939 0.440151 -0.0204581
0.0989748 0.455296 -0.0200916
0.11897 0.425054 -0.0204693
0.089059 0.470417 -0.0194688
0.108974 0.430105 -0.0198955
0.0989795 0.445209 -0.019644
0.119011 0.415003 -0.0199451
0.0890543 0.460347 -0.0190162
0.119037 0.40497 -0.0194355
0.10901 0.420069 -0.0193876
0.0990057 0.435162 -0.0191519
0.119074 0.394931 -0.0189128
0.109038 0.410028 -0.018879
0.0890469 0.450294 -0.0185991
0.0990362 0.425125 -0.0186481
0.119133 0.384892 -0.0184117
0.109084 0.399987 -0.0183817
0.0890448 0.440248 -0.0181777
0.079153 0.475554 -0.0181611
0.159317 0.3549 -0.0189106
0.179482 0.354817 -0.0189689
0.139164 0.354973 -0.0185804
0.169378 0.35985 -0.0192768
0.149213 0.359921 -0.0191094
0.15927 0.364881 -0.0195347
0.179446 0.364802 -0.0195952
0.139103 0.364946 -0.0191957
0.149159 0.369911 -0.0196899
0.16934 0.369839 -0.0198995
0.159231 0.374869 -0.0201463
0.179417 0.374791 -0.020215
0.139051 0.374929 -0.0198012
0.149119 0.379901 -0.0202839
0.16931 0.379829 -0.0205071
0.159204 0.384884 -0.0206903
0.179397 0.384813 -0.0207785
0.139014 0.384929 -0.020317
0.169296 0.389885 -0.0210141
0.1491 0.389923 -0.0207965
0.159188 0.394949 -0.0212047
0.179388 0.39489 -0.0213166
0.138987 0.394973 -0.0207978
0.169284 0.399974 -0.0215667
0.149076 0.399993 -0.021322
0.179383 0.404998 -0.0218929
0.159176 0.405012 -0.0217801
0.169275 0.410099 -0.0221551
0.149056 0.410101 -0.021877
0.17938 0.41515 -0.0225068
0.159164 0.415142 -0.0223596
0.138934 0.415142 -0.0219039
0.13896 0.405027 -0.0213597
0.128863 0.410103 -0.0212024
0.128872 0.400009 -0.0207123
0.12891 0.389957 -0.020219
0.12894 0.379944 -0.0197883
0.128995 0.369962 -0.0192028
0.129059 0.35999 -0.018601
0.199482 0.354778 -0.0198199
0.219639 0.354698 -0.0194173
0.239764 0.354633 -0.0191975
0.189368 0.359821 -0.0203659
0.209551 0.359748 -0.019879
0.229699 0.359668 -0.0195733
0.249842 0.359725 -0.0195499
0.199448 0.364777 -0.0204487
0.219623 0.364698 -0.0200396
0.239754 0.364636 -0.0198006
0.189323 0.369829 -0.0209961
0.209529 0.369753 -0.0205066
0.229688 0.369672 -0.0201912
0.249836 0.369737 -0.020158
0.199418 0.374787 -0.0210841
0.21961 0.374703 -0.0206687
0.239746 0.37464 -0.0204187
0.189283 0.379856 -0.021635
0.209511 0.379772 -0.0211466
0.229681 0.379683 -0.0208239
0.249832 0.379757 -0.0207936
0.199398 0.384828 -0.0216503
0.219604 0.384738 -0.0212362
0.239744 0.384677 -0.0209847
0.189259 0.389945 -0.0221384
0.209508 0.389816 -0.0216867
0.229685 0.389758 -0.0213381
0.249839 0.389839 -0.021273
0.199383 0.394936 -0.0222052
0.219606 0.394835 -0.0217804
0.23975 0.394777 -0.021526
0.189226 0.400043 -0.0227925
0.209503 0.39994 -0.0222707
0.229692 0.399884 -0.0219148
0.249848 0.399976 -0.0217918
0.199369 0.405106 -0.0228222
0.219611 0.40498 -0.0223803
0.239761 0.404922 -0.0221236
0.189198 0.410246 -0.0234498
0.209501 0.410121 -0.0229088
0.229702 0.41006 -0.0225527
0.249858 0.410175 -0.0223464
0.199356 0.415339 -0.0235176
0.219618 0.415185 -0.023053
0.239774 0.415121 -0.0227979
0.169268 0.420262 -0.0227566
0.149038 0.420248 -0.0224361
0.12883 0.420226 -0.0217322
0.159146 0.425373 -0.0229425
0.179376 0.425321 -0.0231249
0.138911 0.425284 -0.0224365
0.169257 0.430456 -0.023398
0.149018 0.43043 -0.023031
0.128775 0.430393 -0.0223031
0.159135 0.435472 -0.0235569
0.179376 0.435403 -0.0237395
0.138886 0.435546 -0.0230223
0.149 0.440514 -0.0236427
0.169255 0.440442 -0.0239786
0.128748 0.440614 -0.0229085
0.179382 0.445418 -0.0242608
0.159139 0.44551 -0.0241053
0.13888 0.445587 -0.0235872
0.149017 0.450558 -0.0241779
0.16928 0.450498 -0.0244786
0.128754 0.450653 -0.0234725
0.17941 0.455486 -0.0247384
0.159161 0.455572 -0.0246284
0.138893 0.455642 -0.0241455
0.149031 0.460617 -0.0247227
0.169302 0.460563 -0.0249889
0.128757 0.460681 -0.0240252
0.179433 0.465561 -0.0252319
0.159179 0.465644 -0.0251512
0.138904 0.465713 -0.0246816
0.169315 0.470619 -0.0255096
0.149043 0.470697 -0.0252572
0.128763 0.470761 -0.0245542
0.179447 0.475649 -0.0257988
0.1389 0.475773 -0.0252605
0.159186 0.475732 -0.0257374
0.189167 0.420504 -0.0241696
0.209495 0.420437 -0.0236255
0.229712 0.420283 -0.0232357
0.24987 0.420446 -0.022924
0.199339 0.425479 -0.0242104
0.21962 0.425426 -0.0237497
0.239783 0.425355 -0.0234882
0.189137 0.430524 -0.0248497
0.20949 0.430469 -0.0242806
0.229718 0.43039 -0.0239017
0.249867 0.430629 -0.023573
0.199326 0.43552 -0.024873
0.219626 0.435426 -0.024368
0.239795 0.435339 -0.0240742
0.189114 0.440574 -0.0255277
0.209493 0.440501 -0.0249127
0.229734 0.440402 -0.0244944
0.249865 0.440621 -0.0241335
0.199331 0.445541 -0.0254742
0.219648 0.445446 -0.0249193
0.239823 0.445358 -0.0245807
0.189119 0.450562 -0.0261064
0.209521 0.450499 -0.0254533
0.229773 0.450409 -0.0249823
0.249882 0.450667 -0.0246608
0.199351 0.455561 -0.0260178
0.219684 0.45547 -0.0254262
0.239867 0.455415 -0.0250438
0.189127 0.460592 -0.0266378
0.20955 0.460531 -0.0259646
0.229815 0.460472 -0.0254651
0.249886 0.460741 -0.0252556
0.19937 0.465618 -0.0265357
0.219722 0.465555 -0.0259263
0.239907 0.465473 -0.0254857
0.189133 0.470709 -0.0272026
0.209578 0.470607 -0.0264752
0.229853 0.470545 -0.0259397
0.249886 0.470853 -0.0257708
0.199384 0.475715 -0.0271083
0.219752 0.475644 -0.0264687
0.239943 0.47556 -0.0259826
0.108902 0.480543 -0.0226608
0.0890393 0.480523 -0.0200243
0.118901 0.485547 -0.0239456
0.0989157 0.48563 -0.0218477
0.0791067 0.485561 -0.018768
0.108868 0.490599 -0.0233562
0.0889564 0.490695 -0.0208061
0.118866 0.495622 -0.0247093
0.0988445 0.495646 -0.0225903
0.0790332 0.495619 -0.0195036
0.108796 0.500651 -0.0241668
0.0888667 0.500695 -0.021616
0.118784 0.505699 -0.0256082
0.0987646 0.505682 -0.0234743
0.0789236 0.505769 -0.0204415
0.108719 0.510752 -0.0250159
0.0887826 0.510725 -0.0224279
0.0690049 0.510654 -0.0189381
0.118716 0.515855 -0.0264494
0.098678 0.515799 -0.0242606
0.0788307 0.515767 -0.0211966
0.108636 0.52089 -0.0258954
0.0886913 0.520826 -0.0232385
0.0689334 0.520845 -0.0197489
0.118645 0.526028 -0.0273562
0.0985863 0.525912 -0.0251244
0.0787478 0.525824 -0.0219869
0.108558 0.53108 -0.0267742
0.0885929 0.530922 -0.0240691
0.068857 0.530832 -0.0204409
0.118574 0.536266 -0.0282427
0.0985081 0.536087 -0.0259666
0.078664 0.535919 -0.0227567
0.108489 0.541317 -0.0275751
0.0885138 0.541063 -0.0248178
0.0688011 0.540905 -0.0210562
0.0691711 0.500744 -0.0181536
0.0592453 0.545903 -0.0183022
0.0590596 0.555957 -0.0190812
0.0588982 0.565972 -0.0197888
0.0587098 0.576167 -0.0206155
0.0489918 0.580936 -0.0183741
0.0586108 0.586426 -0.0211394
0.0488579 0.591046 -0.0187971
0.0585465 0.596481 -0.0215027
0.0487917 0.601278 -0.0189589
0.118497 0.546565 -0.0290734
0.0984329 0.546298 -0.0266593
0.0785753 0.546022 -0.0233526
0.10839 0.551589 -0.028446
0.0884128 0.551279 -0.0255412
0.0686952 0.551005 -0.0216741
0.118383 0.556722 -0.0300946
0.0983214 0.556582 -0.0275451
0.0784505 0.556222 -0.0241249
0.108277 0.561739 -0.0293832
[...]
POINT_DATA 6969
VECTORS alpha float
5.77603e-06 -1.8489e-08 1.81948e-07
5.5749e-06 -1.86069e-08 1.83213e-07
-9.63167e-09 1.58566e-05 -1.07975e-06
6.1059e-06 -2.00214e-08 1.29541e-07
6.41075e-06 -2.12794e-08 6.68128e-08
6.67426e-06 -2.29862e-08 5.7601e-08
6.88592e-06 -1.79206e-08 5.00076e-08
7.39087e-06 -1.20125e-08 3.22908e-08
7.50161e-06 -1.12347e-08 1.02106e-08
7.59367e-06 -1.03485e-08 -1.14058e-08
7.69351e-06 -9.97442e-09 3.79329e-08
7.86466e-06 -2.3706e-09 2.10205e-08
7.9102e-06 -3.88989e-10 -1.58971e-08
5.42042e-06 -2.28093e-08 -1.24199e-08
5.34418e-06 -1.92721e-08 1.86082e-07
-8.48472e-09 1.59982e-05 -1.08905e-06
5.87067e-06 -2.05458e-08 1.33581e-07
9.40917e-09 1.48703e-05 -1.00828e-06
2.33713e-08 1.33822e-05 -8.98963e-07
1.14131e-08 1.1747e-05 -8.34962e-07
7.07501e-06 -1.80084e-08 1.72557e-08
7.23265e-06 -1.68853e-08 -1.47511e-08
9.99547e-09 7.58796e-06 -5.36621e-07
7.97907e-09 6.5656e-06 -4.62983e-07
6.26338e-09 5.65404e-06 -3.98045e-07
3.71359e-09 4.81072e-06 -3.40775e-07
1.84036e-09 3.99093e-06 -2.82455e-07
7.76241e-06 -9.76309e-09 2.01206e-08
7.81963e-06 -8.87683e-09 3.424e-09
1.36701e-09 2.38127e-06 -1.68535e-07
4.36223e-10 1.58421e-06 -1.11812e-07
-2.00934e-11 7.90964e-07 -5.57794e-08
7.89336e-06 -1.88257e-09 1.27531e-10
-1.71005e-08 1.50172e-05 -1.02349e-06
6.4016e-09 1.59372e-05 -1.09846e-06
5.06864e-06 -2.08935e-08 -8.52846e-08
6.14072e-06 -2.13206e-08 6.78071e-08
6.3727e-06 -2.36448e-08 5.1246e-08
6.55217e-06 -1.87272e-08 4.73222e-08
1.39834e-08 1.01621e-05 -7.20747e-07
1.46809e-08 8.76875e-06 -6.18424e-07
6.99443e-06 -1.28181e-08 3.14561e-08
7.0936e-06 -1.18032e-08 9.47089e-09
7.17785e-06 -1.06675e-08 -1.19867e-08
7.27241e-06 -1.0621e-08 3.35732e-08
4.91906e-10 3.18177e-06 -2.2694e-07
7.43873e-06 -2.90177e-09 1.82557e-08
7.48393e-06 -7.13369e-11 -1.85568e-08
5.77624e-06 1.85293e-08 -1.8188e-07
5.57503e-06 1.8646e-08 -1.83136e-07
-9.61016e-09 -1.58566e-05 1.07968e-06
6.10612e-06 2.00654e-08 -1.2946e-07
7.91021e-06 2.59045e-10 1.59785e-08
7.89453e-06 1.30413e-09 -2.71756e-09
7.86458e-06 2.33284e-09 -2.16725e-08
7.69352e-06 1.00746e-08 -3.80536e-08
7.59364e-06 1.03517e-08 1.13744e-08
7.50166e-06 1.12365e-08 -1.02433e-08
7.39098e-06 1.20126e-08 -3.2327e-08
6.88615e-06 1.79691e-08 -4.99716e-08
6.6745e-06 2.30349e-08 -5.7543e-08
6.41098e-06 2.13277e-08 -6.67204e-08
6.01838e-14 1.86684e-10 -1.31803e-11
-1.97872e-11 -7.90548e-07 5.57477e-08
4.29692e-10 -1.58377e-06 1.11777e-07
1.34651e-09 -2.38083e-06 1.68501e-07
1.80167e-09 -3.99049e-06 2.82449e-07
3.63781e-09 -4.81027e-06 3.40821e-07
7.81948e-06 8.90139e-09 -3.15163e-09
7.76232e-06 9.82587e-09 -2.00446e-08
6.24965e-09 -5.6539e-06 3.98173e-07
7.96503e-09 -6.56546e-06 4.63107e-07
9.98216e-09 -7.58779e-06 5.36729e-07
1.14009e-08 -1.17469e-05 8.35067e-07
7.23281e-06 1.69304e-08 1.47296e-08
7.07522e-06 1.80553e-08 -1.72446e-08
5.34464e-06 1.9316e-08 -1.86026e-07
-8.45233e-09 -1.59982e-05 1.08899e-06
5.87082e-06 2.05866e-08 -1.33494e-07
2.33955e-08 -1.33822e-05 8.98917e-07
9.4338e-09 -1.48703e-05 1.00822e-06
5.42061e-06 2.28072e-08 1.24501e-08
7.48391e-06 7.44972e-11 1.84977e-08
7.43861e-06 2.91156e-09 -1.82952e-08
7.27234e-06 1.06402e-08 -3.36048e-08
4.79821e-10 -3.18132e-06 2.26897e-07
7.17782e-06 1.06658e-08 1.19768e-08
7.09363e-06 1.18017e-08 -9.48282e-09
6.99452e-06 1.28166e-08 -3.14721e-08
6.55233e-06 1.87778e-08 -4.72549e-08
1.46724e-08 -8.76866e-06 6.18432e-07
1.3974e-08 -1.01619e-05 7.20795e-07
6.37287e-06 2.36971e-08 -5.11706e-08
6.14088e-06 2.13635e-08 -6.77108e-08
6.4473e-09 -1.59373e-05 1.0982e-06
-1.70545e-08 -1.50173e-05 1.02322e-06
5.06881e-06 2.08918e-08 8.53241e-08
5.48501e-08 1.12783e-05 -6.28852e-07
5.88183e-08 1.12075e-05 -6.13547e-07
6.13783e-06 -1.5375e-08 -6.29751e-07
5.71943e-08 1.11167e-05 -6.11777e-07
4.07918e-08 1.20039e-05 -6.35791e-07
5.23929e-06 -1.67916e-08 -5.26717e-07
4.93623e-08 1.10344e-05 -6.02025e-07
4.67324e-06 -2.09153e-08 -4.58665e-07
4.67795e-08 1.20008e-05 -5.83106e-07
4.08077e-08 1.09847e-05 -6.01536e-07
4.3601e-06 -2.69679e-08 -4.16337e-07
4.24285e-08 1.19521e-05 -5.65692e-07
3.444e-08 1.09795e-05 -6.07573e-07
6.08008e-06 -2.01546e-08 -8.6744e-07
4.24601e-06 -2.51836e-08 -3.98277e-07
3.22563e-08 1.18896e-05 -5.75119e-07
2.28583e-08 1.10001e-05 -6.15716e-07
5.26637e-06 -2.34844e-08 -7.3994e-07
1.45968e-08 1.10654e-05 -6.26045e-07
4.11716e-06 -2.32421e-08 -3.78269e-07
2.14406e-08 1.18503e-05 -5.91331e-07
5.08713e-09 1.11654e-05 -6.40555e-07
4.19409e-06 -2.28328e-08 -3.76426e-07
4.71988e-06 -2.68192e-08 -6.53554e-07
1.07159e-08 1.18457e-05 -6.08453e-07
-1.01086e-08 1.12879e-05 -6.57438e-07
4.31573e-06 -2.41963e-08 -3.7646e-07
4.38005e-06 -3.0847e-08 -5.95258e-07
5.33809e-08 1.7601e-05 -8.07081e-07
-1.12708e-08 1.48491e-05 -1.01013e-06
1.1288e-08 1.5768e-05 -1.08678e-06
-2.85655e-08 1.3181e-05 -8.84035e-07
5.55113e-06 -2.18811e-08 -1.2639e-08
5.17489e-06 -1.95944e-08 -8.84358e-08
5.45205e-10 1.46692e-05 -9.85018e-07
2.20036e-08 1.55844e-05 -1.06156e-06
-1.65049e-08 1.30118e-05 -8.59205e-07
5.20157e-06 -1.75542e-08 -9.34437e-08
5.59285e-06 -2.13253e-08 -1.41789e-08
1.05407e-08 1.44827e-05 -9.56665e-07
3.05927e-08 1.53903e-05 -1.03163e-06
-5.92323e-09 1.28401e-05 -8.33006e-07
5.17441e-06 -1.7193e-08 -9.7223e-08
5.56933e-06 -2.14952e-08 -1.71318e-08
1.88079e-08 1.43033e-05 -9.31043e-07
3.73368e-08 1.51979e-05 -1.00318e-06
3.18336e-09 1.26802e-05 -8.09315e-07
5.41134e-06 -1.69929e-08 -2.42626e-08
5.03515e-06 -1.38729e-08 -1.01062e-07
2.34483e-08 1.41396e-05 -9.19533e-07
4.0803e-08 1.50143e-05 -9.87903e-07
8.59225e-09 1.25417e-05 -7.99182e-07
5.19538e-06 -1.39396e-08 -2.81663e-08
4.8563e-06 -1.09192e-08 -1.03418e-07
4.01838e-08 1.48417e-05 -9.8026e-07
2.52329e-08 1.39889e-05 -9.14757e-07
4.86917e-06 -1.20258e-08 -3.16957e-08
4.59427e-06 -9.09369e-09 -1.03817e-07
3.65721e-08 1.4694e-05 -9.74939e-07
2.3497e-08 1.38723e-05 -9.10823e-07
1.04122e-08 1.23374e-05 -7.98152e-07
1.06216e-08 1.24211e-05 -7.99852e-07
4.37967e-06 -6.42501e-09 -1.9411e-07
4.57284e-06 -7.76988e-09 -1.92884e-07
4.70604e-06 -1.07183e-08 -1.90933e-07
4.81768e-06 -1.48777e-08 -1.84766e-07
4.83922e-06 -1.57543e-08 -1.80055e-07
4.81765e-06 -1.70965e-08 -1.74954e-07
-6.3358e-09 1.56936e-05 -1.06978e-06
1.06177e-08 1.47228e-05 -1.00031e-06
2.3566e-08 1.32501e-05 -8.95223e-07
5.94349e-06 -1.69877e-08 1.87042e-07
6.30549e-06 -1.88496e-08 1.37748e-07
6.64394e-06 -2.05695e-08 7.7145e-08
6.93762e-06 -1.98452e-08 7.68681e-08
-8.74809e-10 1.55173e-05 -1.05102e-06
1.4258e-08 1.45568e-05 -9.87564e-07
2.55685e-08 1.30995e-05 -8.8861e-07
6.01459e-06 -1.58181e-08 1.87638e-07
6.40399e-06 -1.82536e-08 1.41452e-07
6.77405e-06 -2.05756e-08 8.35361e-08
7.09962e-06 -1.68663e-08 9.0762e-08
4.39735e-09 1.53251e-05 -1.03021e-06
1.75719e-08 1.43724e-05 -9.71606e-07
2.71182e-08 1.29296e-05 -8.78986e-07
6.0111e-06 -1.55052e-08 1.84551e-07
6.42071e-06 -1.85e-08 1.4164e-07
6.81745e-06 -2.15506e-08 8.64911e-08
7.17241e-06 -1.41817e-08 1.02485e-07
8.96936e-09 1.51359e-05 -1.01963e-06
2.02543e-08 1.41864e-05 -9.63171e-07
2.80927e-08 1.27537e-05 -8.75226e-07
5.8529e-06 -1.40289e-08 1.7263e-07
6.26694e-06 -1.76786e-08 1.40183e-07
6.67655e-06 -1.92872e-08 8.3621e-08
7.05173e-06 -9.89586e-09 1.08067e-07
1.17538e-08 1.49543e-05 -1.02787e-06
2.19884e-08 1.40011e-05 -9.67937e-07
2.86863e-08 1.25731e-05 -8.80756e-07
5.61777e-06 -1.46559e-08 1.77294e-07
6.01613e-06 -1.69567e-08 1.37103e-07
6.42278e-06 -1.8008e-08 8.22869e-08
6.80628e-06 -7.37868e-09 1.09155e-07
1.2928e-08 1.4774e-05 -1.04531e-06
2.30192e-08 1.38108e-05 -9.7507e-07
2.91573e-08 1.23821e-05 -8.83719e-07
5.24251e-06 -1.54115e-08 1.6577e-07
5.6004e-06 -1.7118e-08 1.27867e-07
5.9812e-06 -1.76593e-08 7.63636e-08
6.35556e-06 -6.71613e-09 1.02763e-07
1.31393e-08 1.46061e-05 -1.06816e-06
2.32966e-08 1.36263e-05 -9.84928e-07
2.88435e-08 1.21905e-05 -8.88064e-07
4.53688e-06 -1.08931e-08 -3.50817e-08
4.34823e-06 -8.0256e-09 -1.04179e-07
4.222e-06 -5.6069e-09 -1.93051e-07
3.32663e-08 1.37993e-05 -9.06524e-07
4.73183e-08 1.45808e-05 -9.53494e-07
2.34162e-08 1.22961e-05 -7.86522e-07
4.45457e-06 -1.23746e-08 -4.03952e-08
4.34798e-06 -9.46255e-09 -1.10134e-07
4.29749e-06 -6.16159e-09 -2.00734e-07
4.46935e-08 1.3753e-05 -8.62799e-07
5.72271e-08 1.45014e-05 -8.92716e-07
3.18429e-08 1.22885e-05 -7.84018e-07
4.28649e-06 -1.37637e-08 -1.08698e-07
4.28287e-06 -1.7147e-08 -3.28566e-08
4.33501e-06 -9.74033e-09 -2.09174e-07
6.48744e-08 1.44833e-05 -8.07648e-07
5.50954e-08 1.37659e-05 -8.04914e-07
4.2562e-08 1.23258e-05 -7.42584e-07
4.45342e-06 -1.14732e-08 -1.05993e-07
4.33748e-06 -1.48055e-08 -2.50323e-08
4.5924e-06 -7.82914e-09 -2.16569e-07
7.1211e-08 1.45312e-05 -7.50868e-07
6.34864e-08 1.38402e-05 -7.48188e-07
5.21573e-08 1.2414e-05 -6.90234e-07
4.94691e-06 -1.11439e-08 -1.10964e-07
4.73919e-06 -1.48258e-08 -1.78267e-08
5.14479e-06 -6.84108e-09 -2.39763e-07
7.19008e-08 1.4636e-05 -7.36951e-07
6.59511e-08 1.39593e-05 -7.36669e-07
5.59412e-08 1.25315e-05 -6.81625e-07
5.62644e-06 -1.60812e-08 -1.74283e-08
5.88677e-06 -1.26155e-08 -1.31856e-07
6.09264e-06 -7.57954e-09 -2.89233e-07
6.47127e-08 1.47824e-05 -7.71299e-07
5.01401e-08 1.26493e-05 -7.17169e-07
5.97361e-08 1.41024e-05 -7.75364e-07
4.8346e-06 -1.64855e-08 1.54798e-07
5.12511e-06 -1.66259e-08 1.12538e-07
5.45481e-06 -1.74996e-08 7.0596e-08
5.79591e-06 -6.60643e-09 9.3564e-08
2.21778e-08 1.44592e-05 -1.0342e-06
2.78074e-08 1.34634e-05 -9.79224e-07
3.06852e-08 1.20123e-05 -8.79864e-07
4.67249e-06 -1.9067e-08 1.56437e-07
4.88247e-06 -1.97617e-08 1.17035e-07
5.14074e-06 -1.94343e-08 7.11953e-08
5.42916e-06 -9.85588e-09 8.90436e-08
3.37914e-08 1.43388e-05 -9.51719e-07
3.49408e-08 1.33177e-05 -8.89157e-07
3.39117e-08 1.18517e-05 -7.94209e-07
4.38841e-06 -2.24001e-08 1.58132e-07
4.48692e-06 -2.27627e-08 1.17001e-07
4.64524e-06 -2.21386e-08 7.25531e-08
4.8488e-06 -1.27453e-08 8.3238e-08
4.39896e-08 1.42992e-05 -8.60996e-07
4.15298e-08 1.32447e-05 -8.02701e-07
3.70832e-08 1.17502e-05 -7.15472e-07
4.32193e-06 -2.0595e-08 1.63381e-07
4.28924e-06 -1.99947e-08 1.21828e-07
4.32263e-06 -1.83505e-08 7.98729e-08
4.41921e-06 -1.13229e-08 7.50842e-08
5.47952e-08 1.43339e-05 -7.53373e-07
4.8361e-08 1.32417e-05 -7.02108e-07
4.11663e-08 1.17095e-05 -6.31355e-07
4.61643e-06 -2.20335e-08 1.76982e-07
4.45016e-06 -2.03051e-08 1.33078e-07
4.34855e-06 -1.83497e-08 9.098e-08
4.32838e-06 -1.41726e-08 6.94582e-08
6.28989e-08 1.44292e-05 -6.97662e-07
5.37829e-08 1.33002e-05 -6.54342e-07
4.2515e-08 1.17294e-05 -5.8559e-07
5.43281e-06 -2.91735e-08 2.18004e-07
5.14319e-06 -2.41791e-08 1.61788e-07
4.90655e-06 -2.04219e-08 1.13537e-07
4.76123e-06 -1.99943e-08 6.95702e-08
6.54274e-08 1.45745e-05 -7.05442e-07
5.40389e-08 1.34165e-05 -6.58067e-07
4.05332e-08 1.18092e-05 -5.88809e-07
7.38617e-06 -1.43539e-08 -7.65374e-07
7.1622e-06 -1.24798e-08 -1.04004e-06
6.17561e-08 1.1293e-05 -6.84754e-07
4.38224e-08 1.19221e-05 -7.04025e-07
4.67017e-08 1.73973e-05 -9.12388e-07
9.01358e-06 -1.08736e-08 -9.4395e-07
8.52456e-06 -1.97418e-09 -1.27717e-06
5.45958e-08 1.12006e-05 -7.45304e-07
4.03131e-08 1.1718e-05 -7.68662e-07
2.98931e-08 1.70664e-05 -1.0478e-06
1.09621e-05 2.5853e-09 -1.16102e-06
1.01067e-05 4.51391e-10 -1.54082e-06
3.88374e-08 1.09489e-05 -8.26619e-07
2.41215e-08 1.13391e-05 -8.47796e-07
1.12008e-09 1.65443e-05 -1.22369e-06
1.31578e-05 2.58037e-08 -1.40824e-06
1.18412e-05 2.40427e-08 -1.82939e-06
1.03074e-05 -2.21081e-09 -2.05735e-06
1.77374e-08 1.04779e-05 -8.79964e-07
1.04699e-08 1.07502e-05 -8.93733e-07
-1.77149e-08 1.5831e-05 -1.26532e-06
1.54026e-05 5.77435e-08 -1.67011e-06
1.35601e-05 7.03261e-08 -2.12798e-06
1.15449e-05 5.52497e-08 -2.37203e-06
6.91131e-10 9.74265e-06 -8.69875e-07
-4.73136e-09 9.89408e-06 -8.76937e-07
-3.41009e-08 1.48929e-05 -1.26973e-06
1.74046e-05 9.03399e-08 -1.93652e-06
1.49995e-05 9.8597e-08 -2.38005e-06
1.24969e-05 8.40425e-08 -2.60606e-06
-1.11824e-08 8.71109e-06 -7.95621e-07
-1.7522e-08 8.76409e-06 -7.98037e-07
-4.22877e-08 1.3716e-05 -1.20723e-06
1.88131e-05 1.22588e-07 -2.17996e-06
1.58701e-05 1.3487e-07 -2.58144e-06
1.29475e-05 1.26049e-07 -2.76467e-06
9.01421e-06 -4.10669e-08 -1.77975e-06
-3.84463e-08 2.60399e-05 -1.58817e-06
-5.91588e-09 2.45903e-05 -1.64172e-06
1.98729e-08 2.32382e-05 -1.6179e-06
3.64595e-08 2.2145e-05 -1.4287e-06
3.02804e-06 2.60865e-08 -8.48782e-07
6.25992e-08 2.14885e-05 -1.10103e-06
-1.59723e-06 -2.20992e-08 4.56301e-07
9.03273e-08 2.15065e-05 -7.61205e-07
-7.58163e-06 -1.43628e-07 2.17594e-06
-8.50903e-09 7.35761e-06 -6.51835e-07
-1.36425e-08 7.35579e-06 -6.46404e-07
-2.74594e-08 1.23054e-05 -1.04259e-06
1.92188e-05 1.4653e-07 -2.38146e-06
1.58384e-05 1.72189e-07 -2.69411e-06
1.26447e-05 1.55072e-07 -2.76865e-06
-1.22845e-08 5.72487e-06 -5.18986e-07
-1.35046e-08 5.73574e-06 -4.95828e-07
-2.64335e-08 1.07704e-05 -8.86773e-07
1.82405e-05 1.55547e-07 -2.37312e-06
1.45932e-05 1.84892e-07 -2.61242e-06
1.13442e-05 1.68979e-07 -2.57303e-06
-1.1775e-08 3.97317e-06 -3.28868e-07
-1.88614e-08 9.19511e-06 -6.76252e-07
-1.08865e-08 3.86324e-06 -3.45658e-07
1.16155e-05 1.65394e-07 -2.19773e-06
8.66557e-06 1.53634e-07 -2.05197e-06
1.51877e-05 1.4867e-07 -2.15078e-06
-1.41505e-08 7.74608e-06 -4.94931e-07
-5.90463e-09 1.90771e-06 -1.55311e-07
-6.03843e-09 2.22846e-06 -1.64563e-07
4.4002e-06 8.70349e-08 -1.07337e-06
9.66151e-06 1.09656e-07 -1.4048e-06
6.59971e-06 1.05702e-07 -1.28512e-06
-7.60921e-09 6.65046e-06 -3.44141e-07
-1.2152e-10 4.64864e-08 -3.15916e-09
-1.49953e-09 7.13583e-07 -4.34822e-08
-1.66575e-06 -3.63849e-08 4.15012e-07
1.2244e-06 1.65502e-08 -1.82784e-07
-7.715e-07 -1.44455e-08 1.53429e-07
2.04108e-09 -1.464e-06 7.21472e-08
1.80491e-10 -3.0286e-07 1.27181e-08
4.30028e-09 6.18082e-06 -2.08354e-07
-9.67699e-06 -2.35765e-07 2.44138e-06
-1.04735e-05 -1.69703e-07 1.5825e-06
-1.0735e-05 -2.3011e-07 2.16019e-06
7.08662e-06 -2.04743e-08 -1.53756e-08
7.33464e-06 -1.62235e-08 -1.65722e-07
7.47395e-06 -1.01036e-08 -3.66752e-07
6.03459e-08 1.42308e-05 -8.56751e-07
6.29511e-08 1.49398e-05 -8.60388e-07
5.38781e-08 1.27278e-05 -7.9777e-07
9.36478e-06 -1.89066e-08 -2.2539e-07
9.22113e-06 -2.68407e-08 -1.81154e-08
9.33754e-06 -1.20557e-08 -4.91684e-07
4.62873e-08 1.43162e-05 -1.02015e-06
4.46662e-08 1.50871e-05 -1.03624e-06
4.34798e-08 1.27281e-05 -9.41727e-07
1.19439e-05 -1.8688e-08 -3.28063e-07
1.20172e-05 -2.95604e-08 -4.17281e-08
1.16339e-05 -1.03399e-08 -6.77863e-07
1.7228e-08 1.42978e-05 -1.28081e-06
1.11556e-08 1.5164e-05 -1.33145e-06
1.87997e-08 1.25926e-05 -1.15839e-06
1.50077e-05 -1.57615e-09 -4.36034e-07
1.54192e-05 -1.81698e-08 -8.02031e-08
1.42953e-05 9.13696e-09 -8.6028e-07
1.22431e-09 1.22702e-05 -1.26872e-06
-6.7079e-09 1.4116e-05 -1.44491e-06
-1.75487e-08 1.5112e-05 -1.52295e-06
1.70995e-05 6.3941e-08 -9.87204e-07
1.83168e-05 3.92882e-08 -5.11326e-07
1.91781e-05 1.36377e-08 -1.13021e-07
-4.40501e-08 1.48848e-05 -1.62695e-06
-1.31001e-08 1.16967e-05 -1.30065e-06
-2.82387e-08 1.37115e-05 -1.52504e-06
2.29938e-05 7.1611e-08 -2.2216e-07
1.97341e-05 1.26426e-07 -1.15953e-06
2.15623e-05 9.3088e-08 -6.37794e-07
-6.3709e-08 1.43934e-05 -1.66192e-06
-1.89023e-08 1.08224e-05 -1.24231e-06
-4.17317e-08 1.30224e-05 -1.51794e-06
2.17883e-05 1.79303e-07 -1.32409e-06
6.8834e-06 -3.80244e-08 2.76441e-07
6.50577e-06 -3.19709e-08 2.16149e-07
6.15552e-06 -2.50507e-08 1.59629e-07
5.897e-06 -2.79451e-08 8.20881e-08
6.49834e-08 1.47534e-05 -8.15208e-07
5.12839e-08 1.35829e-05 -7.52898e-07
3.74624e-08 1.19429e-05 -6.77398e-07
9.09731e-06 -5.63492e-08 3.57186e-07
8.69129e-06 -4.62818e-08 3.01137e-07
8.27152e-06 -3.16461e-08 2.41724e-07
7.92078e-06 -3.85907e-08 1.18695e-07
5.17873e-08 1.49363e-05 -1.05543e-06
3.91656e-08 1.37675e-05 -9.72567e-07
2.47798e-08 1.21171e-05 -8.63203e-07
1.20903e-05 -8.29109e-08 4.42719e-07
1.17417e-05 -6.77916e-08 4.07083e-07
1.1323e-05 -4.4574e-08 3.60051e-07
1.09241e-05 -5.89359e-08 2.10141e-07
2.22849e-08 1.50846e-05 -1.47003e-06
1.0721e-08 1.39569e-05 -1.35328e-06
-1.7838e-10 1.23026e-05 -1.20861e-06
1.5827e-05 -1.04806e-07 5.96945e-07
1.56332e-05 -7.80198e-08 5.47852e-07
1.52997e-05 -4.90126e-08 4.92725e-07
1.49505e-05 -7.85717e-08 3.52441e-07
3.56739e-10 1.51529e-05 -1.72053e-06
-9.77552e-09 1.40891e-05 -1.59403e-06
-1.89004e-08 1.24729e-05 -1.41741e-06
2.00589e-05 -9.44591e-08 8.55568e-07
2.01239e-05 -7.0345e-08 7.56222e-07
1.99687e-05 -4.22322e-08 6.45077e-07
1.97712e-05 -7.26207e-08 5.08526e-07
-2.11505e-08 1.50892e-05 -1.90827e-06
-2.98843e-08 1.41267e-05 -1.78091e-06
-3.64524e-08 1.25703e-05 -1.58545e-06
2.45076e-05 -7.25703e-08 1.12286e-06
2.49625e-05 -5.89172e-08 9.75191e-07
2.51082e-05 -3.98908e-08 8.06505e-07
2.51623e-05 -4.71659e-08 6.95697e-07
-4.76645e-08 1.40019e-05 -1.90013e-06
-5.17329e-08 1.25435e-05 -1.69873e-06
-3.76483e-08 1.48181e-05 -2.00015e-06
2.63857e-05 1.16384e-07 -3.55804e-07
2.42833e-05 1.65849e-07 -8.04778e-07
-7.07284e-08 1.35725e-05 -1.57685e-06
-1.14392e-08 9.6052e-06 -1.04752e-06
-3.95917e-08 1.1995e-05 -1.36435e-06
2.59521e-05 1.87587e-07 -8.98845e-07
2.87535e-05 1.32902e-07 -4.64767e-07
2.27906e-05 2.32555e-07 -1.40193e-06
-7.18452e-08 1.24096e-05 -1.38553e-06
-3.49404e-08 1.06051e-05 -1.12097e-06
-4.75644e-09 8.04461e-06 -7.86473e-07
2.60135e-05 1.96691e-07 -9.83353e-07
2.94903e-05 1.4224e-07 -6.15584e-07
2.22619e-05 2.336e-07 -1.4014e-06
-2.73619e-08 8.85422e-06 -7.99648e-07
-6.80787e-08 1.08665e-05 -1.09401e-06
1.98367e-09 6.16687e-06 -4.82411e-07
2.34699e-05 1.91404e-07 -1.03778e-06
2.74664e-05 1.43104e-07 -7.26329e-07
1.93448e-05 2.14951e-07 -1.35897e-06
-2.05335e-08 6.83213e-06 -5.51871e-07
-5.93582e-08 9.00984e-06 -8.23016e-07
3.28735e-09 4.09471e-06 -2.81321e-07
1.76896e-05 1.74384e-07 -9.0861e-07
2.19394e-05 1.43387e-07 -6.85362e-07
1.35227e-05 1.75907e-07 -1.08095e-06
-1.09717e-08 4.67976e-06 -3.06963e-07
-4.42066e-08 6.94696e-06 -5.31768e-07
3.95907e-09 1.99808e-06 -1.05695e-07
1.2097e-05 1.00981e-07 -4.07731e-07
4.25506e-06 6.58101e-08 -3.68137e-07
7.99484e-06 9.18594e-08 -4.53564e-07
-2.66875e-09 2.60048e-06 -1.14216e-07
-2.66752e-08 4.84773e-06 -2.6727e-07
4.21597e-10 1.11212e-07 -3.43943e-09
-2.82254e-06 -2.92315e-08 1.0368e-07
-8.93637e-06 -1.63442e-07 8.1207e-07
-6.22897e-06 -8.66908e-08 3.74401e-07
3.01876e-05 -5.05807e-08 9.9967e-07
2.86484e-05 -4.77295e-08 1.42508e-06
2.96187e-05 -4.71996e-08 1.22086e-06
3.05922e-05 -2.52063e-08 8.67373e-07
-6.50497e-08 1.2284e-05 -1.65911e-06
-4.46446e-08 1.42083e-05 -1.8713e-06
-5.62872e-08 1.35846e-05 -1.79903e-06
3.17768e-05 -3.30816e-08 1.60428e-06
3.33643e-05 -5.97545e-08 1.38748e-06
3.44703e-05 -8.16427e-08 1.12472e-06
3.53124e-05 -8.54106e-08 1.04077e-06
-6.8542e-08 1.17601e-05 -1.42738e-06
-4.04956e-08 1.32675e-05 -1.55223e-06
-5.73651e-08 1.28728e-05 -1.54257e-06
3.32465e-05 -4.1562e-08 1.67269e-06
3.55071e-05 -9.9678e-08 1.44396e-06
3.72192e-05 -1.55624e-07 1.15643e-06
3.86778e-05 -1.20437e-07 9.75704e-07
-6.92371e-08 1.09337e-05 -1.11677e-06
-3.19135e-08 1.19406e-05 -1.09978e-06
-5.37308e-08 1.18089e-05 -1.15679e-06
3.17866e-05 -5.4143e-08 1.42469e-06
3.46985e-05 -1.23722e-07 1.26428e-06
3.70328e-05 -1.95034e-07 1.03892e-06
3.90429e-05 -1.45357e-07 7.2297e-07
-2.8124e-08 1.02831e-05 -8.71901e-07
-5.16665e-08 1.04262e-05 -9.49418e-07
-6.95309e-08 9.81241e-06 -9.41882e-07
2.65413e-05 -2.67397e-08 1.0055e-06
2.99911e-05 -8.94812e-08 9.56637e-07
3.28819e-05 -1.59657e-07 8.48257e-07
3.54361e-05 -1.53656e-07 5.35916e-07
-1.96291e-08 8.37692e-06 -5.99224e-07
-4.34396e-08 8.77614e-06 -6.88306e-07
-6.29578e-08 8.43066e-06 -7.09256e-07
1.6559e-05 4.84699e-09 5.69592e-07
2.0317e-05 -3.54626e-08 6.02731e-07
2.35952e-05 -8.76005e-08 5.84072e-07
2.65072e-05 -1.12418e-07 3.1006e-07
-8.31181e-09 6.36741e-06 -3.22837e-07
-3.04401e-08 6.97434e-06 -4.06389e-07
-5.04099e-08 6.87465e-06 -4.4578e-07
9.04928e-07 2.38885e-09 2.86296e-08
4.6164e-06 2.36106e-09 1.25481e-07
7.99806e-06 -1.25518e-08 1.79752e-07
1.24723e-08 1.1636e-05 -8.28404e-07
1.41768e-08 1.00673e-05 -7.16237e-07
1.42651e-08 8.68915e-06 -6.15676e-07
7.19414e-06 -1.70216e-08 6.1148e-08
7.4122e-06 -1.74867e-08 2.9044e-08
7.59403e-06 -1.66022e-08 -2.33865e-09
1.51015e-08 1.15073e-05 -8.18121e-07
1.54107e-08 9.95675e-06 -7.08808e-07