# vtk DataFile Version 3.0
vtk output
ASCII
DATASET POLYDATA
POINTS 5555 float
0.189757 0.280375 -0.0152322
0.209829 0.280317 -0.0149778
0.199802 0.275217 -0.0147615
0.22989 0.280165 -0.0148329
0.249985 0.280324 -0.014724
0.330007 0.280225 -0.01469
0.349971 0.280194 -0.0146963
0.369923 0.280161 -0.0147393
0.390081 0.280281 -0.0147598
0.410055 0.280267 -0.0147014
0.430031 0.280247 -0.0146731
0.450044 0.280223 -0.0147372
0.470022 0.280205 -0.0147511
0.490001 0.280179 -0.0147993
0.169758 0.280146 -0.0144798
0.189771 0.270129 -0.0146274
0.219866 0.275071 -0.0145377
0.23992 0.275005 -0.0144867
0.269985 0.280187 -0.0146053
0.289962 0.28015 -0.0145563
0.309922 0.280111 -0.0145668
0.380091 0.275105 -0.0144827
0.400062 0.275093 -0.0144024
0.440047 0.275045 -0.0144147
0.460022 0.275033 -0.0144094
0.479999 0.275013 -0.0144419
0.179803 0.275033 -0.0142189
0.149689 0.280138 -0.0142611
0.199813 0.265007 -0.0141813
0.20984 0.270015 -0.0143239
0.229897 0.269958 -0.0141736
0.249994 0.270067 -0.0141423
0.259995 0.27508 -0.0143648
0.279977 0.275045 -0.014275
0.299943 0.275007 -0.0142507
0.320017 0.274985 -0.0143716
0.339983 0.274955 -0.0143477
0.359935 0.274921 -0.0143682
0.39007 0.269984 -0.0141261
0.420028 0.274976 -0.0143401
0.489976 0.269889 -0.0141647
0.790171 0.280317 -0.0149768
0.810243 0.280374 -0.0152304
0.509999 0.280178 -0.0147995
0.529979 0.280204 -0.0147515
0.549956 0.280222 -0.0147377
0.569969 0.280247 -0.0146741
0.589945 0.280267 -0.0147026
0.609919 0.280281 -0.0147611
0.630077 0.280161 -0.0147416
0.650029 0.280194 -0.0146986
0.669993 0.280225 -0.0146923
0.750015 0.280325 -0.0147241
0.800198 0.275217 -0.0147603
0.77011 0.280165 -0.0148324
0.500023 0.274985 -0.0145115
0.520001 0.275012 -0.014442
0.539978 0.275032 -0.0144097
0.559954 0.275044 -0.014415
0.599938 0.275093 -0.0144029
0.619909 0.275105 -0.0144831
0.690078 0.280111 -0.0145685
0.710038 0.28015 -0.0145576
0.730015 0.280187 -0.014606
0.810229 0.270129 -0.0146264
0.76008 0.275005 -0.0144866
0.780134 0.275071 -0.014537
0.830242 0.280145 -0.0144779
0.510024 0.269888 -0.0141646
0.60993 0.269984 -0.0141259
0.579972 0.274976 -0.0143407
0.640065 0.274921 -0.0143697
0.660018 0.274955 -0.0143493
0.679983 0.274985 -0.0143731
0.750006 0.270067 -0.0141423
0.700058 0.275007 -0.014252
0.720023 0.275046 -0.0142758
0.740005 0.27508 -0.014365
0.800187 0.265007 -0.0141804
0.770103 0.269957 -0.0141732
0.79016 0.270015 -0.0143232
0.820197 0.275032 -0.0142178
0.850311 0.280137 -0.0142592
0.119488 0.365338 -0.0181307
0.119443 0.375425 -0.0189177
0.1094 0.380454 -0.0186392
0.119397 0.385525 -0.0197412
0.109346 0.390575 -0.0194253
0.119349 0.39569 -0.0205329
0.0993159 0.395585 -0.0189424
0.0993685 0.385479 -0.0181991
0.0893694 0.3905 -0.0175353
0.0794112 0.395515 -0.0166747
0.109454 0.370385 -0.0178335
0.0994313 0.375431 -0.0174233
0.089439 0.380466 -0.0168005
0.109503 0.360345 -0.0170653
0.0794682 0.38548 -0.0160079
0.119541 0.355323 -0.0173422
0.0994913 0.365374 -0.0167035
0.0895007 0.370424 -0.0160774
0.119552 0.345298 -0.0166517
0.0695208 0.390511 -0.0149802
0.109546 0.350345 -0.0163446
0.0995359 0.35539 -0.0159213
0.0795214 0.375477 -0.0153169
0.109297 0.400738 -0.0201249
0.0893124 0.400575 -0.0181791
0.0694824 0.400531 -0.0154846
0.11929 0.405918 -0.0212957
0.099259 0.405738 -0.0195827
0.0793409 0.405574 -0.0172301
0.119566 0.335276 -0.0160412
0.109556 0.34033 -0.0157048
0.0895519 0.360444 -0.0153502
0.119574 0.325239 -0.0154785
0.0995778 0.345416 -0.0152474
0.109581 0.330313 -0.0151259
0.079584 0.365529 -0.0146495
0.0695725 0.380574 -0.0143901
0.119586 0.315204 -0.0149417
0.0896059 0.350486 -0.0146216
0.0996035 0.335409 -0.0146324
0.109603 0.320238 -0.0145693
0.119622 0.305065 -0.0143887
0.109622 0.310111 -0.0140459
0.099625 0.32525 -0.014042
0.159711 0.28525 -0.0147015
0.179791 0.28519 -0.0148386
0.169743 0.290317 -0.0151251
0.14966 0.2903 -0.0148639
0.159694 0.295325 -0.0153277
0.179786 0.295248 -0.0154579
0.139606 0.295409 -0.0149661
0.149636 0.300358 -0.0154939
0.169735 0.300277 -0.0157194
0.179786 0.305237 -0.0159948
0.15969 0.305337 -0.0158985
0.13959 0.305425 -0.015555
0.149642 0.310375 -0.0160401
0.169751 0.310307 -0.0162354
0.179807 0.315277 -0.0164956
0.159703 0.315369 -0.0164321
0.139592 0.315451 -0.0161146
0.149648 0.320401 -0.0166038
0.169767 0.320339 -0.0167724
0.129531 0.320479 -0.016144
0.179827 0.325315 -0.0170233
0.159715 0.325403 -0.0169865
0.139594 0.325484 -0.0166832
0.169777 0.330351 -0.0173253
0.149654 0.330437 -0.0171754
0.129526 0.330516 -0.0167181
0.179842 0.335356 -0.0176118
0.139585 0.335495 -0.0172937
0.159722 0.335443 -0.0175974
0.169781 0.340397 -0.0179692
0.149647 0.340485 -0.0178303
0.129506 0.340571 -0.0173698
0.159704 0.345469 -0.0182917
0.179843 0.345404 -0.0183046
0.13956 0.345554 -0.0179985
0.129539 0.310483 -0.0155755
0.129546 0.300471 -0.0150058
0.129582 0.290272 -0.0143827
0.139641 0.285168 -0.014367
0.199788 0.285347 -0.0154173
0.219864 0.285298 -0.0152222
0.239921 0.285222 -0.0151821
0.189727 0.290376 -0.0159067
0.209824 0.290329 -0.0156282
0.229895 0.290249 -0.0154905
0.199775 0.295364 -0.0160867
0.219867 0.295273 -0.0158451
0.239928 0.29518 -0.0157658
0.189704 0.300397 -0.0166026
0.209825 0.300331 -0.0162772
0.229907 0.300231 -0.0160945
0.24997 0.300444 -0.0159178
0.199775 0.305353 -0.0167166
0.219884 0.305262 -0.0164198
0.239948 0.30517 -0.0162855
0.189702 0.310352 -0.0172179
0.209845 0.310297 -0.016839
0.229937 0.310208 -0.01659
0.199786 0.315337 -0.0172957
0.219912 0.315253 -0.0169401
0.239984 0.315195 -0.0167483
0.189698 0.320341 -0.0178169
0.209865 0.32029 -0.0173916
0.229972 0.320234 -0.017097
0.199795 0.325347 -0.0178782
0.219942 0.325292 -0.0174863
0.240018 0.325212 -0.0172246
0.189693 0.3304 -0.01846
0.209885 0.330312 -0.0179602
0.230004 0.330258 -0.0176161
0.199801 0.335384 -0.0185077
0.219967 0.335325 -0.0180692
0.240051 0.335249 -0.0177519
0.18968 0.340428 -0.0191042
0.209897 0.340355 -0.0186075
0.230031 0.340296 -0.0182156
0.199799 0.345451 -0.0192192
0.219983 0.345361 -0.0187129
0.240077 0.345296 -0.0183821
0.249981 0.31046 -0.0164418
0.249977 0.290482 -0.0153564
0.249984 0.320495 -0.0170535
0.149608 0.350533 -0.0186199
0.169761 0.350471 -0.0187681
0.129455 0.350614 -0.0181303
0.159658 0.355538 -0.0191989
0.179809 0.355481 -0.0192176
0.1395 0.355618 -0.0188889
0.149548 0.360612 -0.01962
0.169712 0.360555 -0.0197999
0.129383 0.360688 -0.0190915
0.159591 0.365639 -0.0203465
0.179753 0.365584 -0.0203991
0.139421 0.3657 -0.0199866
0.149485 0.370666 -0.0206092
0.169658 0.370632 -0.0208119
0.129306 0.37071 -0.0200763
0.139363 0.375713 -0.0208422
0.159547 0.375701 -0.0212168
0.179716 0.375679 -0.021279
0.129242 0.38072 -0.0209418
0.149432 0.380735 -0.0215048
0.169615 0.380737 -0.02171
0.179675 0.385869 -0.0221494
0.139308 0.385785 -0.0217164
0.159499 0.385812 -0.0221044
0.169575 0.390967 -0.0225311
0.129188 0.390807 -0.0217835
0.149384 0.390865 -0.0223675
0.179636 0.39611 -0.0230465
0.139264 0.39593 -0.0225223
0.159456 0.395995 -0.0229566
0.169533 0.401125 -0.0234158
0.14935 0.401076 -0.0231174
0.129141 0.40093 -0.0226124
0.179593 0.40621 -0.0239223
0.139223 0.406099 -0.0232595
0.159418 0.406179 -0.0237371
0.189652 0.350509 -0.0199236
0.209897 0.350427 -0.0193996
0.230044 0.350345 -0.018934
0.249986 0.350668 -0.0187461
0.19977 0.355515 -0.0201461
0.219977 0.355425 -0.0196549
0.240084 0.355354 -0.0192172
0.189601 0.360613 -0.0209738
0.20987 0.360498 -0.0204688
0.230035 0.360412 -0.019972
0.199719 0.36562 -0.0213841
0.219946 0.365512 -0.0208676
0.240066 0.365424 -0.0204472
0.189543 0.370702 -0.022144
0.209837 0.370595 -0.0215689
0.230017 0.370523 -0.0210648
0.199685 0.375704 -0.0223779
0.219931 0.375625 -0.0218153
0.240058 0.375581 -0.0213451
0.189492 0.380818 -0.0231884
0.209811 0.380741 -0.0225561
0.230004 0.380693 -0.0220309
0.199646 0.385889 -0.0233963
0.219911 0.385834 -0.0228008
0.240044 0.385803 -0.0223279
0.189439 0.391056 -0.0242179
0.209782 0.391007 -0.0235369
0.229987 0.390974 -0.0229925
0.219888 0.396171 -0.0237607
0.240028 0.396145 -0.0232844
0.199599 0.396194 -0.0243585
0.229963 0.401231 -0.0239919
0.189372 0.401297 -0.0252167
0.20974 0.401259 -0.0244866
0.240005 0.406291 -0.0241761
0.199552 0.406378 -0.0252612
0.219853 0.406333 -0.0246003
0.249949 0.401409 -0.0235633
0.249962 0.391181 -0.0226699
0.249966 0.380947 -0.0217618
0.249976 0.370827 -0.0207366
0.249983 0.360769 -0.0195706
0.0595971 0.415601 -0.0143453
0.0594487 0.425572 -0.0149144
0.059291 0.435713 -0.0156267
0.0494668 0.440539 -0.0140417
0.0592093 0.445922 -0.0160861
0.0493492 0.45061 -0.0144425
0.059157 0.455934 -0.0164551
0.0492867 0.46081 -0.0146254
0.0591178 0.465958 -0.0166401
0.0492645 0.470878 -0.0146292
0.109215 0.410944 -0.0209194
0.0892258 0.410741 -0.0188542
0.0693902 0.410598 -0.0160735
0.119191 0.41599 -0.0221645
0.0991586 0.41595 -0.02035
0.0792255 0.415719 -0.0179086
0.109117 0.421012 -0.0217305
0.0891363 0.420955 -0.0195253
0.0692907 0.42074 -0.0166188
0.119093 0.426076 -0.0230532
0.0990606 0.426019 -0.0211237
0.0791381 0.425937 -0.0184859
0.10902 0.431113 -0.0226058
0.0890455 0.431028 -0.020233
0.0691937 0.430913 -0.0171515
0.119009 0.436203 -0.0239116
0.0989783 0.436119 -0.021867
0.0790638 0.436001 -0.0190767
0.108946 0.441219 -0.0233144
0.0889701 0.441101 -0.0208651
0.0691198 0.440968 -0.0176801
0.118945 0.446345 -0.0245848
0.0989074 0.446218 -0.022491
0.078994 0.446066 -0.0196197
0.108883 0.451354 -0.0238996
0.0889058 0.451193 -0.0213659
0.0690579 0.451021 -0.0181264
0.118881 0.456498 -0.0251375
0.0988429 0.456338 -0.0229591
0.0789289 0.456142 -0.0200399
0.108831 0.461521 -0.0242381
0.0888504 0.461307 -0.0216833
0.069001 0.46107 -0.0184073
0.118848 0.466705 -0.0252883
0.0988028 0.466486 -0.0231372
0.0788894 0.466236 -0.020186
0.0590953 0.476016 -0.0165335
0.0492518 0.480909 -0.0143257
0.0591066 0.486072 -0.0160472
0.059148 0.496099 -0.0153592
0.0592096 0.50609 -0.0144987
0.10879 0.471681 -0.0243022
0.0888056 0.471424 -0.0217655
0.0689559 0.471141 -0.0184709
0.0788495 0.476331 -0.0201232
0.0987784 0.476642 -0.0229365
[...]
POINT_DATA 5555
VECTORS alpha float
4.76212e-06 -1.31174e-08 8.03835e-08
5.07361e-06 -1.52249e-08 4.54021e-08
4.27573e-09 1.4569e-05 -9.74354e-07
5.42662e-06 -1.85507e-08 1.01839e-08
5.79105e-06 -8.54306e-09 4.01981e-08
7.17679e-06 -1.04957e-08 5.2158e-09
7.43611e-06 -1.19135e-08 -8.65519e-09
7.65155e-06 -1.3316e-08 -2.31113e-08
7.84005e-06 -4.39854e-09 2.94928e-08
7.97916e-06 -6.80146e-09 1.75719e-08
8.08339e-06 -9.2263e-09 5.61011e-09
8.15632e-06 -5.92565e-09 1.68959e-09
8.20302e-06 -9.09827e-09 -1.26989e-08
8.22596e-06 -1.22832e-08 -2.69375e-08
4.50299e-06 -1.21558e-08 -2.5801e-08
5.17069e-06 -1.15066e-08 1.00726e-07
1.33187e-08 1.35948e-05 -8.8542e-07
1.93638e-08 1.21641e-05 -7.88662e-07
6.16575e-06 -1.08744e-08 2.57698e-08
6.52828e-06 -1.24828e-08 6.75706e-09
6.86435e-06 -1.40705e-08 -1.26025e-08
3.68133e-09 4.41188e-06 -3.12535e-07
1.93506e-09 3.67631e-06 -2.6015e-07
1.19921e-09 2.20602e-06 -1.55239e-07
3.60768e-10 1.46973e-06 -1.02876e-07
-4.03916e-11 7.3447e-07 -5.1148e-08
1.94938e-08 1.46669e-05 -9.14815e-07
4.31246e-06 -9.28587e-09 -6.78503e-08
3.82867e-09 1.47398e-05 -9.55613e-07
5.54822e-06 -1.50011e-08 6.69133e-08
5.95182e-06 -1.81722e-08 1.99332e-08
6.34831e-06 -8.0483e-09 5.17881e-08
1.43799e-08 1.06433e-05 -7.19032e-07
1.28467e-08 9.17976e-06 -6.21129e-07
1.14758e-08 7.91359e-06 -5.35964e-07
9.52268e-09 6.86287e-06 -4.7279e-07
7.18854e-09 5.95963e-06 -4.07836e-07
5.27158e-09 5.15599e-06 -3.50327e-07
8.37854e-06 -4.73389e-09 3.44094e-08
6.23471e-10 2.94052e-06 -2.04214e-07
8.74214e-06 -1.15135e-08 -3.2014e-08
5.0737e-06 1.52916e-08 -4.52137e-08
4.7622e-06 1.31878e-08 -8.02068e-08
8.22588e-06 1.21982e-08 2.68204e-08
8.20279e-06 9.03693e-09 1.26276e-08
8.15597e-06 5.8893e-09 -1.71313e-09
8.08298e-06 9.24587e-09 -5.70251e-09
7.97875e-06 6.83892e-09 -1.76071e-08
7.83969e-06 4.45219e-09 -2.94757e-08
7.65127e-06 1.33684e-08 2.31053e-08
7.43592e-06 1.19478e-08 8.64194e-09
7.17669e-06 1.05114e-08 -5.23572e-09
5.79112e-06 8.62703e-09 -4.00337e-08
4.30374e-09 -1.45691e-05 9.74135e-07
5.42671e-06 1.86339e-08 -1.0042e-08
1.56529e-13 4.32275e-10 -2.9949e-11
-4.33825e-11 -7.33655e-07 5.10795e-08
3.54872e-10 -1.46907e-06 1.02811e-07
1.19085e-09 -2.20557e-06 1.55187e-07
1.92474e-09 -3.67624e-06 2.60227e-07
3.66942e-09 -4.41193e-06 3.1264e-07
6.86432e-06 1.42083e-08 1.27619e-08
6.5283e-06 1.26018e-08 -6.59218e-09
6.1658e-06 1.09754e-08 -2.56039e-08
5.17075e-06 1.15673e-08 -1.0064e-07
1.93595e-08 -1.21642e-05 7.88531e-07
1.33279e-08 -1.35949e-05 8.85243e-07
4.50309e-06 1.21632e-08 2.57948e-08
8.74206e-06 1.15547e-08 3.19445e-08
8.37814e-06 4.84661e-09 -3.42809e-08
6.14906e-10 -2.94026e-06 2.04258e-07
5.25888e-09 -5.15605e-06 3.50477e-07
7.17454e-09 -5.95969e-06 4.07982e-07
9.50746e-09 -6.86287e-06 4.72923e-07
6.34835e-06 8.12312e-09 -5.1624e-08
1.14535e-08 -7.9136e-06 5.36059e-07
1.28256e-08 -9.1797e-06 6.21211e-07
1.43617e-08 -1.06431e-05 7.19103e-07
3.85336e-09 -1.47398e-05 9.55397e-07
5.95187e-06 1.82217e-08 -1.98249e-08
5.54828e-06 1.50568e-08 -6.68171e-08
1.9516e-08 -1.46671e-05 9.14455e-07
4.31256e-06 9.30651e-09 6.78567e-08
2.6071e-08 1.08996e-05 -7.73541e-07
8.91533e-09 1.04213e-05 -8.05123e-07
1.53795e-05 7.86261e-09 -1.13921e-06
-5.13887e-09 9.68269e-06 -7.85118e-07
1.73762e-05 2.88258e-08 -1.3406e-06
-1.50929e-08 8.65195e-06 -7.12159e-07
-1.98045e-08 8.70681e-06 -7.05937e-07
-8.95082e-09 9.83577e-06 -7.81021e-07
1.50446e-05 2.90772e-08 -1.66528e-06
-4.60068e-08 1.3634e-05 -1.05448e-06
1.31412e-05 -1.14357e-08 -9.4882e-07
3.02277e-09 1.06948e-05 -8.04492e-07
1.36033e-05 1.29852e-08 -1.47858e-06
1.0951e-05 -2.36275e-08 -7.76729e-07
-4.07162e-08 1.4813e-05 -1.11536e-06
3.82987e-08 1.11617e-05 -7.13484e-07
1.23576e-08 1.12906e-05 -7.77129e-07
1.18803e-05 -2.00659e-08 -1.25131e-06
4.52869e-08 1.12634e-05 -6.68356e-07
1.26033e-05 1.53144e-08 -1.84222e-06
9.00706e-06 -2.83848e-08 -6.30681e-07
2.44138e-08 1.16796e-05 -7.18785e-07
-2.89018e-08 1.5757e-05 -1.1204e-06
1.87826e-05 4.9575e-08 -1.54102e-06
1.59179e-05 5.35496e-08 -1.82903e-06
1.30593e-05 4.63532e-08 -1.97607e-06
-1.519e-08 7.3077e-06 -5.84197e-07
-1.94246e-08 7.30811e-06 -5.74155e-07
-3.80248e-08 1.22333e-05 -9.18331e-07
4.27106e-08 1.12548e-05 -6.30004e-07
7.38281e-06 -2.55589e-08 -5.08828e-07
1.01419e-05 -3.15044e-08 -1.04465e-06
3.91104e-08 1.11881e-05 -6.11749e-07
2.71186e-08 1.18932e-05 -6.70384e-07
6.13531e-06 -2.31404e-08 -4.12206e-07
-1.36387e-08 1.64794e-05 -1.10181e-06
1.16436e-05 -1.86664e-09 -1.66341e-06
3.13698e-08 1.11007e-05 -6.05733e-07
8.55587e-06 -2.35491e-08 -8.62594e-07
2.75154e-08 1.19816e-05 -6.21867e-07
5.23684e-06 -2.28085e-08 -3.38055e-07
1.71366e-08 1.10217e-05 -5.90385e-07
4.67068e-06 -2.57801e-08 -2.88052e-07
2.22973e-08 1.19834e-05 -5.67415e-07
1.22503e-08 1.37678e-05 -8.66495e-07
2.5945e-08 1.45512e-05 -9.10172e-07
4.42191e-06 -1.40638e-08 -2.98474e-08
4.31297e-06 -1.1304e-08 -7.34332e-08
2.36711e-08 1.37173e-05 -8.39513e-07
3.65406e-08 1.44683e-05 -8.69357e-07
1.22289e-08 1.2253e-05 -7.64549e-07
4.25251e-06 -1.59018e-08 -7.20945e-08
4.2516e-06 -1.87576e-08 -2.11478e-08
4.2667e-08 1.44468e-05 -8.08401e-07
3.23861e-08 1.3726e-05 -8.01183e-07
2.06989e-08 1.22859e-05 -7.37518e-07
4.4185e-06 -1.37408e-08 -6.91623e-08
4.30613e-06 -1.62961e-08 -1.41659e-08
4.84798e-08 1.44888e-05 -7.90127e-07
3.89009e-08 1.37944e-05 -7.83887e-07
2.74226e-08 1.23685e-05 -7.22865e-07
4.90872e-06 -1.37159e-08 -7.14264e-08
4.70539e-06 -1.62595e-08 -8.25523e-09
5.10574e-06 -1.08695e-08 -1.58262e-07
4.99585e-08 1.45862e-05 -7.97751e-07
4.11529e-08 1.39058e-05 -7.94024e-07
3.0226e-08 1.24789e-05 -7.34587e-07
5.58724e-06 -1.74148e-08 -5.15161e-09
5.84254e-06 -1.58029e-08 -8.30002e-08
6.04808e-06 -1.30359e-08 -1.89811e-07
4.57589e-08 1.47239e-05 -8.37938e-07
2.61549e-08 1.25884e-05 -7.73147e-07
3.7408e-08 1.404e-05 -8.37272e-07
7.03792e-06 -2.26866e-08 -1.04383e-09
7.28063e-06 -2.15648e-08 -1.02458e-07
7.42099e-06 -1.90987e-08 -2.38193e-07
2.55256e-08 1.41608e-05 -8.96465e-07
3.18766e-08 1.48738e-05 -9.05246e-07
1.88016e-08 1.266e-05 -8.32238e-07
4.55678e-06 -1.11534e-08 -1.43692e-07
4.3009e-06 -1.26496e-08 -1.39188e-07
4.26258e-06 -8.39944e-09 -1.30718e-07
2.45758e-09 1.22657e-05 -7.53741e-07
7.99742e-09 1.44151e-05 -9.65264e-07
1.61338e-08 1.34258e-05 -9.01175e-07
2.12486e-08 1.19816e-05 -7.97988e-07
4.60223e-06 -1.63845e-08 8.39905e-08
4.83281e-06 -1.88101e-08 5.34324e-08
5.11353e-06 -2.08709e-08 1.56764e-08
1.47804e-08 1.42889e-05 -9.14569e-07
2.02676e-08 1.3276e-05 -8.38742e-07
2.35098e-08 1.18182e-05 -7.3527e-07
4.32225e-06 -2.00318e-08 8.9963e-08
4.441e-06 -2.1955e-08 5.93327e-08
4.62022e-06 -2.34288e-08 2.42753e-08
4.84362e-06 -1.46716e-08 4.42574e-08
1.94611e-08 1.42445e-05 -8.57951e-07
2.38805e-08 1.31994e-05 -7.82166e-07
2.59663e-08 1.17143e-05 -6.81329e-07
4.25695e-06 -1.81287e-08 9.98549e-08
4.24527e-06 -1.88744e-08 6.98017e-08
4.29906e-06 -1.89953e-08 3.76838e-08
2.41584e-08 1.4273e-05 -8.06528e-07
2.73539e-08 1.31917e-05 -7.35263e-07
2.93696e-08 1.16703e-05 -6.45961e-07
4.5478e-06 -1.90715e-08 1.16305e-07
4.40495e-06 -1.86095e-08 8.39177e-08
4.32494e-06 -1.82592e-08 5.13251e-08
2.76797e-08 1.43607e-05 -7.82803e-07
3.09049e-08 1.32443e-05 -7.18469e-07
3.08086e-08 1.1686e-05 -6.28285e-07
5.35305e-06 -2.47677e-08 1.52903e-07
5.09175e-06 -2.12772e-08 1.09153e-07
4.88033e-06 -1.92124e-08 7.13757e-08
2.81873e-08 1.44975e-05 -8.00184e-07
3.10796e-08 1.33541e-05 -7.32154e-07
3.04677e-08 1.17611e-05 -6.4081e-07
6.78413e-06 -3.2353e-08 2.01573e-07
6.44142e-06 -2.80763e-08 1.52858e-07
6.1226e-06 -2.32839e-08 1.06366e-07
2.45307e-08 1.46631e-05 -8.68369e-07
2.6458e-08 1.35096e-05 -7.90037e-07
2.71815e-08 1.18861e-05 -6.96649e-07
4.41461e-06 -1.28008e-08 4.20776e-08
5.42386e-06 -1.20533e-08 4.17877e-08
4.32439e-06 -1.52759e-08 3.81272e-08
9.29426e-06 -2.78515e-08 -1.36934e-07
9.1548e-06 -3.05202e-08 2.73282e-09
9.27158e-06 -2.68075e-08 -3.17058e-07
2.0576e-08 1.42325e-05 -1.01544e-06
2.44718e-08 1.50057e-05 -1.03041e-06
1.5848e-08 1.26491e-05 -9.39546e-07
1.18528e-05 -3.33959e-08 -2.01182e-07
1.19279e-05 -3.59547e-08 -8.2523e-09
1.15527e-05 -3.38014e-08 -4.37572e-07
6.11803e-09 1.41955e-05 -1.19798e-06
7.72882e-09 1.50617e-05 -1.23661e-06
3.48776e-09 1.24986e-05 -1.09215e-06
1.48917e-05 -2.44003e-08 -2.68035e-07
1.53019e-05 -2.9308e-08 -3.03679e-08
1.41949e-05 -2.54923e-08 -5.53864e-07
-5.91156e-09 1.2169e-05 -1.15956e-06
-6.35919e-09 1.40023e-05 -1.31119e-06
-7.32176e-09 1.49957e-05 -1.37323e-06
1.69765e-05 1.61629e-08 -6.40545e-07
1.81725e-05 5.63025e-09 -3.17942e-07
1.903e-05 -5.31407e-09 -5.29468e-08
-2.38173e-08 1.47572e-05 -1.43605e-06
-1.47653e-08 1.15916e-05 -1.16535e-06
-1.97401e-08 1.35896e-05 -1.35662e-06
2.28185e-05 4.28621e-08 -1.41991e-07
1.9593e-05 6.47026e-08 -7.53696e-07
2.13932e-05 4.77448e-08 -4.03695e-07
-3.7268e-08 1.42569e-05 -1.43704e-06
-1.91282e-08 1.07176e-05 -1.09211e-06
-2.93883e-08 1.28959e-05 -1.32469e-06
2.61848e-05 6.68764e-08 -2.33115e-07
2.40962e-05 9.86438e-08 -5.29915e-07
2.16368e-05 1.02575e-07 -8.6724e-07
-5.09749e-08 1.34308e-05 -1.36989e-06
-2.05153e-08 9.50709e-06 -9.34484e-07
-3.6073e-08 1.18696e-05 -1.2003e-06
8.96871e-06 -4.93829e-08 2.72684e-07
8.60612e-06 -4.07397e-08 2.23176e-07
8.22666e-06 -2.82102e-08 1.69903e-07
7.91492e-06 -3.98806e-08 5.19123e-08
1.99163e-08 1.4829e-05 -1.0379e-06
2.17261e-08 1.3678e-05 -9.48398e-07
2.03248e-08 1.20462e-05 -8.3074e-07
1.19234e-05 -7.49227e-08 3.45853e-07
1.16283e-05 -6.02516e-08 3.08103e-07
1.12614e-05 -3.85084e-08 2.602e-07
5.8034e-09 1.49503e-05 -1.32333e-06
6.17147e-09 1.38422e-05 -1.21516e-06
6.14883e-09 1.22089e-05 -1.07945e-06
1.56112e-05 -9.63285e-08 4.71022e-07
1.54842e-05 -6.93186e-08 4.15164e-07
1.52167e-05 -4.10493e-08 3.56693e-07
-5.45434e-09 1.50032e-05 -1.49941e-06
-5.37765e-09 1.39588e-05 -1.38335e-06
-5.78011e-09 1.23649e-05 -1.22211e-06
1.97855e-05 -8.86969e-08 6.69468e-07
1.99329e-05 -6.30023e-08 5.71999e-07
1.98611e-05 -3.47653e-08 4.68611e-07
-1.81802e-08 1.49248e-05 -1.62349e-06
-1.83245e-08 1.39807e-05 -1.50737e-06
-1.79734e-08 1.24474e-05 -1.33274e-06
2.41746e-05 -6.82958e-08 8.92539e-07
2.4727e-05 -5.16388e-08 7.49749e-07
2.49742e-05 -3.14798e-08 5.94813e-07
-3.16251e-08 1.38411e-05 -1.56655e-06
-3.02054e-08 1.24058e-05 -1.39049e-06
-2.95292e-08 1.46413e-05 -1.65537e-06
3.00237e-05 -5.15794e-08 7.58867e-07
2.8258e-05 -5.80795e-08 1.12484e-06
2.93379e-05 -5.22268e-08 9.44246e-07
-4.17237e-08 1.21347e-05 -1.37081e-06
-3.62609e-08 1.40248e-05 -1.56276e-06
-3.99658e-08 1.34149e-05 -1.49199e-06
3.05441e-05 -1.91138e-08 6.67e-07
2.51268e-05 -3.63079e-08 5.00527e-07
1.97456e-05 -6.70173e-08 3.40542e-07
1.49337e-05 -7.52009e-08 2.12483e-07
1.09146e-05 -5.85541e-08 1.08519e-07
-6.88467e-08 2.45058e-05 -1.42763e-06
-1.62929e-08 2.31453e-05 -1.42899e-06
1.26859e-08 2.20483e-05 -1.28382e-06
3.07042e-06 -7.27803e-10 -6.24665e-07
3.84238e-08 2.13956e-05 -1.02181e-06
-1.61972e-06 -6.45513e-09 3.37879e-07
5.95835e-08 2.14202e-05 -7.57293e-07
-7.68671e-06 -6.36428e-08 1.61683e-06
8.9e-08 2.24574e-05 -4.08256e-07
-1.51267e-05 -1.60946e-07 3.20156e-06
1.91904e-05 5.66853e-08 -1.69726e-06
1.5889e-05 7.67932e-08 -1.92496e-06
1.2755e-05 6.61512e-08 -1.98987e-06
-1.27862e-08 5.68186e-06 -4.66582e-07
-1.43345e-08 5.69541e-06 -4.42132e-07
-2.93013e-08 1.07029e-05 -7.8743e-07
1.82147e-05 5.75541e-08 -1.68415e-06
1.46444e-05 8.34771e-08 -1.88294e-06
1.14467e-05 7.88554e-08 -1.86622e-06
-9.81826e-09 3.83082e-06 -3.15811e-07
-1.0416e-08 3.94302e-06 -2.99575e-07
-1.95974e-08 9.13532e-06 -6.15033e-07
1.51708e-05 5.00748e-08 -1.53272e-06
1.16604e-05 7.13363e-08 -1.59423e-06
8.74763e-06 7.51773e-08 -1.50434e-06
-4.92645e-09 1.89129e-06 -1.45303e-07
-5.50066e-09 2.21103e-06 -1.54757e-07
-1.41668e-08 7.69455e-06 -4.69632e-07
9.65167e-06 4.23638e-08 -1.01211e-06
6.62587e-06 4.67493e-08 -9.40049e-07
4.44295e-06 4.26173e-08 -7.91582e-07
-1.02102e-10 4.60898e-08 -3.06496e-09
-1.42326e-09 7.08042e-07 -4.26617e-08
-8.50188e-09 6.60689e-06 -3.43168e-07
1.22327e-06 7.31787e-09 -1.32449e-07
-7.74625e-07 -6.92662e-09 1.12845e-07
-1.68216e-06 -1.78815e-08 3.07992e-07
2.04993e-09 -1.45214e-06 7.48003e-08
3.0823e-10 -3.00635e-07 1.35803e-08
-1.38728e-09 6.14258e-06 -2.31621e-07
-1.04643e-05 -8.59643e-08 1.14743e-06
-1.07787e-05 -1.17624e-07 1.59458e-06
-9.77241e-06 -1.18994e-07 1.82046e-06
-2.60803e-10 -2.28844e-06 6.5291e-08
-2.97047e-10 -4.92938e-07 1.15379e-08
9.58162e-09 6.61741e-06 -1.1326e-07
1.54549e-07 2.48131e-05 1.20099e-07
-2.38553e-05 -3.13845e-07 5.02155e-06
2.72862e-07 2.8788e-05 9.74411e-07
4.57317e-07 3.46658e-05 2.3182e-06
7.2495e-07 4.26976e-05 4.31558e-06
-2.56063e-05 -2.5567e-07 2.80727e-06
-2.3491e-05 -2.92877e-07 3.49017e-06
-1.98683e-05 -2.75186e-07 3.70761e-06
3.53097e-08 8.36839e-06 6.79681e-08
1.85478e-09 4.97818e-07 2.65431e-09
-6.05542e-09 -2.08715e-06 -7.29353e-10
-3.88932e-05 -5.89718e-07 5.62194e-06
-3.19062e-05 -5.05679e-07 5.84691e-06
-4.42414e-05 -5.36865e-07 4.75227e-06
9.25458e-08 1.17613e-05 4.77247e-07
-2.66648e-09 -4.39208e-07 -1.54144e-08
2.17221e-08 3.06085e-06 1.17485e-07
-4.56994e-05 -8.26348e-07 8.03093e-06
-6.61812e-05 -8.6355e-07 6.97028e-06
-5.67652e-05 -9.21812e-07 8.04159e-06
2.02659e-07 1.71235e-05 1.30919e-06
3.06025e-08 3.07581e-06 2.38712e-07
8.44005e-08 7.58232e-06 5.91464e-07
-6.08544e-05 -1.15528e-06 1.06996e-05
-9.10404e-05 -1.27429e-06 9.6432e-06
-7.67217e-05 -1.31498e-06 1.09002e-05
1.25214e-07 8.86556e-06 1.08595e-06
2.226e-07 1.44248e-05 1.72801e-06
4.03432e-07 2.47658e-05 2.83784e-06
-0.000118248 -1.70205e-06 1.24041e-05
-9.82546e-05 -1.72072e-06 1.37679e-05
-7.69618e-05 -1.48323e-06 1.33389e-05
4.60398e-07 2.39107e-05 3.90577e-06
3.10314e-07 1.73077e-05 2.93542e-06
6.95933e-07 3.49557e-05 5.37592e-06
-0.000120708 -2.07019e-06 1.63963e-05
-0.000147065 -2.10092e-06 1.50546e-05
-9.3475e-05 -1.75615e-06 1.5625e-05
8.30826e-07 3.62966e-05 7.56616e-06
6.21923e-07 2.87237e-05 6.28955e-06
1.11245e-06 4.7881e-05 9.28237e-06
-0.000143364 -2.31362e-06 1.854e-05
-0.000176664 -2.40486e-06 1.73094e-05
2.57492e-05 9.88544e-08 -5.94221e-07
2.85303e-05 6.31151e-08 -2.88448e-07
2.263e-05 1.29126e-07 -9.52651e-07
-4.79916e-08 1.22678e-05 -1.21538e-06
-2.81473e-08 1.04856e-05 -1.00036e-06
-1.06095e-08 7.95725e-06 -7.17236e-07
2.58149e-05 9.13994e-08 -6.52609e-07
2.92676e-05 5.51902e-08 -3.77172e-07
2.21084e-05 1.17042e-07 -9.65039e-07
-2.13723e-08 8.74857e-06 -7.63594e-07
-4.48954e-08 1.07324e-05 -1.01458e-06
-3.52245e-09 6.09727e-06 -4.80335e-07
2.3298e-05 8.23244e-08 -7.05407e-07
2.72655e-05 5.02933e-08 -4.57054e-07
1.92193e-05 9.9084e-08 -9.59395e-07
-1.5282e-08 6.74899e-06 -5.35049e-07
-3.91348e-08 8.8961e-06 -7.71524e-07
-4.80758e-11 4.04777e-06 -2.86347e-07
1.75656e-05 8.34482e-08 -6.22739e-07
2.17833e-05 6.31058e-08 -4.32942e-07
1.34413e-05 8.5282e-08 -7.7149e-07
-8.27641e-09 4.62333e-06 -3.08201e-07
-2.95918e-08 6.85985e-06 -5.09752e-07
1.8035e-09 1.97551e-06 -1.13781e-07
1.20123e-05 5.48848e-08 -2.49995e-07
4.23079e-06 3.45915e-08 -2.64484e-07
7.94068e-06 4.72715e-08 -3.12129e-07
-2.48888e-09 2.57069e-06 -1.25004e-07
-1.85636e-08 4.78996e-06 -2.6894e-07
2.35914e-10 1.10023e-07 -4.3517e-09
-2.80326e-06 -1.79971e-08 6.21515e-08
-8.88741e-06 -9.30131e-08 5.81732e-07
-6.18791e-06 -4.98889e-08 2.54281e-07
-9.06127e-09 2.9303e-06 -9.35725e-08
-4.54142e-09 -1.24991e-06 2.06896e-08
1.1593e-10 8.65363e-07 -2.18634e-08
3.13446e-05 -6.74099e-08 1.26133e-06
3.30431e-05 -8.08466e-08 1.08833e-06
3.42731e-05 -9.09694e-08 8.83536e-07
3.52364e-05 -7.55717e-08 8.68978e-07
-4.41775e-08 1.16114e-05 -1.20838e-06
-3.29672e-08 1.30894e-05 -1.33938e-06
-4.02282e-08 1.27043e-05 -1.31843e-06
3.28006e-05 -9.36332e-08 1.32975e-06
3.51676e-05 -1.31867e-07 1.16095e-06
3.7004e-05 -1.68722e-07 9.51315e-07
3.85907e-05 -1.09811e-07 8.67196e-07
-4.5358e-08 1.079e-05 -1.0379e-06
-2.82896e-08 1.17766e-05 -1.06297e-06
-3.87874e-08 1.16492e-05 -1.09429e-06
3.13725e-05 -1.16666e-07 1.15256e-06
3.43734e-05 -1.62284e-07 1.05156e-06
3.68192e-05 -2.08244e-07 9.05129e-07
3.89557e-05 -1.36694e-07 6.8873e-07
-2.42202e-08 1.01376e-05 -8.6168e-07
-3.67087e-08 1.02804e-05 -9.15837e-07
-4.54483e-08 9.67842e-06 -8.90937e-07
2.62067e-05 -8.33262e-08 8.29998e-07
2.97162e-05 -1.23612e-07 8.1595e-07
3.26925e-05 -1.66758e-07 7.59831e-07
3.53549e-05 -1.40565e-07 5.16991e-07
-1.74423e-08 8.25766e-06 -6.19077e-07
-3.08481e-08 8.65251e-06 -6.88404e-07
-4.12579e-08 8.31445e-06 -6.91238e-07
1.63552e-05 -3.3471e-08 4.85562e-07
2.01337e-05 -5.92503e-08 5.34254e-07
2.34593e-05 -8.9622e-08 5.47129e-07
2.64456e-05 -1.00311e-07 3.19664e-07
-8.99419e-09 6.27958e-06 -3.68565e-07
-2.19824e-08 6.87925e-06 -4.38231e-07
-3.3246e-08 6.78297e-06 -4.60245e-07
8.94089e-07 1.71885e-10 2.52418e-08
4.57577e-06 -3.17478e-09 1.15573e-07
7.9529e-06 -1.25396e-08 1.76367e-07
1.09779e-05 -3.23909e-08 1.36024e-07
-7.75842e-10 4.41427e-06 -1.52243e-07
-1.16751e-08 5.13963e-06 -2.03824e-07
-2.25389e-08 5.23341e-06 -2.31104e-07
-2.62353e-05 -3.28305e-07 1.69778e-06
-2.52685e-05 -2.51332e-07 1.01679e-06
-2.32459e-05 -1.74157e-07 5.01088e-07
-1.04264e-08 -1.7409e-06 -2.17638e-08
-3.18062e-10 -1.46034e-07 -6.82441e-10
-2.29388e-09 1.60051e-06 -3.31242e-09
-4.95414e-05 -5.21737e-07 1.89166e-06
-4.96872e-05 -3.97085e-07 9.77968e-07
-4.79396e-05 -6.32145e-07 2.98134e-06
-8.46891e-09 -9.50659e-07 -4.60994e-08
-2.8743e-10 -6.05168e-08 -2.5391e-09
9.07454e-10 1.18661e-06 4.28108e-08
-7.89806e-05 -8.45162e-07 2.73742e-06
-8.22176e-05 -6.55761e-07 1.31919e-06
-7.38841e-05 -9.96283e-07 4.31261e-06
1.24557e-08 1.5656e-06 1.37447e-07
7.62352e-09 2.12342e-06 1.77175e-07
1.94134e-08 1.55938e-06 1.43886e-07
-0.000120581 -1.02468e-06 2.22039e-06
-0.000103641 -1.49976e-06 6.4536e-06
-0.000113229 -1.29277e-06 4.29869e-06
1.00984e-07 6.22736e-06 8.67728e-07
5.93091e-08 5.19052e-06 7.09984e-07
3.26803e-08 4.87533e-06 6.51785e-07
-0.000136659 -2.00863e-06 8.69278e-06
-0.000151738 -1.76617e-06 6.01506e-06
-0.000164269 -1.4182e-06 3.31065e-06
2.7169e-07 1.34691e-05 2.55172e-06
1.70649e-07 1.12633e-05 2.13266e-06
1.00337e-07 9.91068e-06 1.86317e-06
-0.000193729 -2.21597e-06 7.70782e-06
-0.000212532 -1.80262e-06 4.40235e-06
-0.000172168 -2.48488e-06 1.0852e-05
5.73478e-07 2.36582e-05 5.72007e-06
3.84501e-07 2.02025e-05 4.94737e-06
2.42734e-07 1.76805e-05 4.34952e-06
-0.000209246 -2.85076e-06 1.26292e-05
-0.000238236 -2.56872e-06 9.10198e-06
-0.000264403 -2.10526e-06 5.25748e-06
-2.09125e-05 -3.49657e-08 -5.88113e-07
-1.78363e-05 -1.49209e-08 -4.47977e-07
-1.48394e-05 8.97399e-11 -3.25734e-07
-1.21789e-05 4.83966e-08 -1.69453e-07
-3.1897e-09 3.68268e-06 -3.49252e-08
-1.30269e-08 3.88293e-06 -5.7098e-08
4.98079e-09 2.94334e-06 -1.12319e-08
-4.95568e-05 -1.32346e-07 -1.41534e-06
-4.7751e-05 -8.77935e-08 -1.2023e-06
-4.57218e-05 -4.54161e-08 -9.84433e-07
-4.39354e-05 1.48829e-07 -7.09023e-07
9.03244e-09 2.22794e-06 7.95893e-08
2.7796e-09 2.83831e-06 8.41585e-08
-6.1086e-09 3.02878e-06 7.19939e-08
-8.52667e-05 -2.38762e-07 -2.48562e-06
-8.55449e-05 -1.7623e-07 -2.21085e-06
-8.52258e-05 -1.10057e-07 -1.89556e-06
-8.47317e-05 3.39823e-08 -1.73502e-06
1.83656e-08 2.68587e-06 2.22861e-07
9.77652e-09 2.99985e-06 2.32611e-07
-7.38889e-10 3.03363e-06 2.18281e-07
-0.000127859 -4.16945e-07 -2.83941e-06
-0.000131193 -3.36606e-07 -2.68802e-06
-0.000133495 -2.40043e-07 -2.46884e-06
-0.00013534 4.9851e-08 -2.36164e-06
4.77491e-08 4.77047e-06 6.45713e-07
2.75076e-08 4.60215e-06 6.0159e-07
8.66812e-09 4.30705e-06 5.40526e-07
-0.000176833 -5.78542e-07 -2.79379e-06
-0.000184351 -5.02813e-07 -2.83477e-06
-0.000190364 -3.99605e-07 -2.76855e-06
-0.000195629 1.09186e-07 -2.92899e-06
1.20626e-07 8.95343e-06 1.72007e-06
7.33756e-08 8.11026e-06 1.53122e-06
3.41337e-08 7.29744e-06 1.34604e-06
-0.000231496 -7.42685e-07 -2.40799e-06
-0.000244421 -7.02662e-07 -2.71424e-06
-0.000255359 -6.26207e-07 -2.87812e-06
-0.000265614 3.91367e-07 -3.48048e-06
2.6837e-07 1.5703e-05 3.95864e-06
1.73025e-07 1.39968e-05 3.51383e-06
9.56305e-08 1.24703e-05 3.09881e-06
-0.000290909 -8.68958e-07 -2.02739e-06
-0.00031055 -8.86262e-07 -2.63362e-06
-0.000327748 -8.61404e-07 -3.06776e-06