# vtk DataFile Version 3.0
vtk output
ASCII
DATASET POLYDATA
POINTS 21614 float
0.192769 0.954814 -0.0543538
0.171419 0.955046 -0.0538976
0.19289 0.944818 -0.0537861
0.182218 0.949933 -0.0539505
0.203578 0.949708 -0.053916
0.214251 0.954606 -0.0539346
0.171553 0.945051 -0.0534095
0.193002 0.934827 -0.0532098
0.182326 0.939939 -0.0534294
0.203689 0.939717 -0.053322
0.214362 0.944614 -0.0533231
0.224934 0.949518 -0.0533278
0.160574 0.960157 -0.0535822
0.159439 1.02012 -0.0570897
0.159657 1.01013 -0.0564768
0.159842 1.00013 -0.0558916
0.148807 1.01524 -0.0559059
0.149018 1.00524 -0.0553324
0.160015 0.990143 -0.0553399
0.13795 1.02035 -0.0550885
0.160182 0.980146 -0.0547755
0.149226 0.995255 -0.0547778
0.138175 1.01035 -0.0545297
0.149372 0.985259 -0.0543267
0.160398 0.970151 -0.0541847
0.13841 1.00036 -0.0539665
0.14958 0.975265 -0.0537757
0.149778 0.96527 -0.0531987
0.1386 0.990371 -0.0534628
0.182097 0.959925 -0.0544423
0.203452 0.9597 -0.0545073
0.224828 0.959509 -0.053966
0.192635 0.964807 -0.0549486
0.171254 0.965039 -0.0544518
0.214145 0.964598 -0.0545289
0.181946 0.969919 -0.055015
0.203321 0.96969 -0.0551275
0.224725 0.969496 -0.0546068
0.192488 0.9748 -0.0555623
0.171064 0.975033 -0.0550555
0.214024 0.974588 -0.0551565
0.203188 0.979681 -0.0557498
0.181753 0.979915 -0.0556247
0.170336 1.01501 -0.0574428
0.18161 0.989908 -0.056144
0.192358 0.984792 -0.0561115
0.203063 0.989675 -0.0563383
0.213905 0.984577 -0.0557851
0.224512 0.989477 -0.0558905
0.170717 0.995017 -0.0562326
0.17051 1.00501 -0.0568614
0.192225 0.994784 -0.0567029
0.213795 0.994567 -0.0564209
0.181445 0.999899 -0.0567732
0.202927 0.999667 -0.0569957
0.192057 1.00478 -0.0573465
0.213656 1.00456 -0.0571033
0.202797 1.00966 -0.0575826
0.19189 1.01477 -0.0579547
0.181104 1.01989 -0.0579979
0.202672 1.01965 -0.0582181
0.224162 1.01944 -0.0578788
0.213525 1.01455 -0.0577653
0.181262 1.00989 -0.0574069
0.224277 1.00945 -0.0572198
0.224403 0.999465 -0.0565603
0.170881 0.985028 -0.055669
0.224615 0.979489 -0.0552442
0.148579 1.02523 -0.0564968
0.127456 1.02545 -0.0535276
0.159218 1.03011 -0.0576858
0.13772 1.03034 -0.0556374
0.148299 1.03523 -0.0571666
0.158988 1.04011 -0.0583114
0.13748 1.04034 -0.0561876
0.148043 1.04522 -0.0577545
0.158761 1.0501 -0.0589464
0.147786 1.05521 -0.0583703
0.137279 1.05033 -0.0566477
0.158548 1.06009 -0.0594958
0.137027 1.06032 -0.0571902
0.147567 1.06521 -0.0589646
0.158329 1.07008 -0.0601267
0.136876 1.07032 -0.0576337
0.147373 1.07519 -0.0594561
0.158073 1.08007 -0.0607927
0.136574 1.08031 -0.0582125
0.147142 1.08519 -0.0600614
0.157842 1.09007 -0.0614189
0.136216 1.0903 -0.058894
0.125942 1.08543 -0.0565934
0.126279 1.07543 -0.0559583
0.126425 1.06543 -0.0556424
0.126682 1.05543 -0.0551204
0.126956 1.04544 -0.0545739
0.115762 1.09055 -0.0542291
0.115986 1.08054 -0.0537804
0.127215 1.03545 -0.0540712
0.116331 1.07054 -0.0531626
0.170147 1.025 -0.0580487
0.19174 1.02476 -0.058587
0.213401 1.02453 -0.0584252
0.202526 1.02964 -0.0588475
0.180944 1.02988 -0.0585943
0.224042 1.02943 -0.0585342
0.169956 1.035 -0.0586206
0.191581 1.03475 -0.0591847
0.202387 1.03964 -0.0594622
0.223919 1.03942 -0.0591986
0.213279 1.03453 -0.0590576
0.180741 1.03987 -0.059227
0.19143 1.04475 -0.0597852
0.213131 1.04452 -0.0597162
0.168956 1.08496 -0.0617003
0.169745 1.04499 -0.0592339
0.180581 1.04986 -0.0598365
0.202246 1.04962 -0.0600808
0.223809 1.04941 -0.0598427
0.169553 1.05498 -0.0598628
0.169338 1.06497 -0.0604845
0.169111 1.07496 -0.0611416
0.191291 1.05474 -0.0603666
0.213017 1.05451 -0.0603271
0.18039 1.05986 -0.060449
0.202107 1.05962 -0.0606655
0.223689 1.0594 -0.0604867
0.191125 1.06473 -0.0609693
0.212891 1.0645 -0.0609513
0.180213 1.06985 -0.0610387
0.201968 1.06961 -0.0612561
0.223592 1.0694 -0.0610962
0.190934 1.07472 -0.0616485
0.212782 1.07449 -0.0615285
0.180001 1.07984 -0.0616952
0.201822 1.0796 -0.0618633
0.223474 1.07938 -0.0617284
0.190767 1.08471 -0.0622435
0.212662 1.08448 -0.0621038
0.179827 1.08983 -0.0622855
0.223373 1.08937 -0.0623121
0.201683 1.0896 -0.0624207
0.338076 0.953765 -0.054694
0.358413 0.953688 -0.054706
0.29733 0.953988 -0.0541929
0.327934 0.948825 -0.0542696
0.348278 0.948736 -0.0543659
0.317741 0.953871 -0.0544311
0.287122 0.949059 -0.0538804
0.256157 0.954262 -0.0539193
0.276846 0.954119 -0.0540322
0.348308 0.93875 -0.0537592
0.317787 0.943886 -0.0538138
0.338112 0.943785 -0.0540882
0.358444 0.943708 -0.0540915
0.307582 0.948938 -0.0539807
0.235403 0.954422 -0.0536205
0.287186 0.939071 -0.0532697
0.256241 0.944274 -0.0533379
0.276918 0.944132 -0.0534232
0.297394 0.944006 -0.0535816
0.245897 0.949346 -0.0534753
0.266583 0.949197 -0.0536315
0.338142 0.933804 -0.0534763
0.358469 0.933729 -0.0534693
0.307633 0.938951 -0.0533772
0.327973 0.938843 -0.0536652
0.378689 0.953621 -0.0549122
0.398932 0.953569 -0.0548708
0.419157 0.953527 -0.0549535
0.439412 0.953499 -0.0548428
0.459618 0.953472 -0.0549796
0.479812 0.953467 -0.0548161
0.368533 0.948664 -0.0544925
0.378723 0.94364 -0.0542872
0.398958 0.943588 -0.0542289
0.419177 0.943547 -0.0543137
0.388872 0.948607 -0.0545474
0.409036 0.948559 -0.0545845
0.429281 0.948527 -0.0545252
0.439421 0.943519 -0.0542003
0.459624 0.943493 -0.0543357
0.479813 0.943487 -0.0541695
0.449522 0.948496 -0.0545986
0.469716 0.948482 -0.0545431
0.489893 0.948477 -0.0544838
0.368585 0.93868 -0.0538909
0.388904 0.938623 -0.0539319
0.40906 0.938576 -0.053957
0.429295 0.938545 -0.0538929
0.449528 0.938513 -0.0539652
0.469717 0.9385 -0.0539091
0.48989 0.938495 -0.0538516
0.368635 0.928701 -0.0532695
0.388934 0.928645 -0.0533001
0.409083 0.928598 -0.0533142
0.378776 0.933664 -0.0536782
0.398994 0.933613 -0.0536005
0.419195 0.933573 -0.0536799
0.449534 0.928536 -0.0533194
0.469718 0.928523 -0.0532623
0.439432 0.933545 -0.0535635
0.459622 0.933519 -0.0536946
0.479799 0.933513 -0.0535264
0.245776 0.959328 -0.05408
0.266486 0.959179 -0.0542371
0.287054 0.959044 -0.0545078
0.256053 0.964245 -0.0545251
0.276758 0.964102 -0.0546328
0.297265 0.963976 -0.0548148
0.235268 0.964406 -0.0542103
0.286977 0.969022 -0.0551105
0.245675 0.969312 -0.0547017
0.266404 0.969162 -0.054845
0.234752 1.01435 -0.0574509
0.234863 1.00436 -0.0567849
0.234978 0.994368 -0.0561036
0.23506 0.98438 -0.0554511
0.297192 0.973954 -0.0554389
0.255962 0.974228 -0.0551287
0.276683 0.974085 -0.0552515
0.276599 0.984066 -0.0558595
0.297134 0.98394 -0.0560656
0.266306 0.979146 -0.0554474
0.286907 0.97901 -0.0557267
0.255873 0.984214 -0.0557461
0.28683 0.988991 -0.0563494
0.245445 0.989282 -0.0559313
0.266228 0.989132 -0.056065
0.297077 0.993919 -0.0566577
0.25578 0.994193 -0.0563441
0.276538 0.99405 -0.0564814
0.266148 0.999111 -0.0566741
0.286774 0.998973 -0.0569807
0.276446 1.00403 -0.0571122
0.297008 1.0039 -0.0573029
0.286687 1.00896 -0.0576135
0.296925 1.01388 -0.057944
0.276287 1.024 -0.0583759
0.296865 1.02387 -0.0585786
0.26597 1.01907 -0.0579543
0.286623 1.01894 -0.0582598
0.255562 1.01416 -0.0576217
0.276371 1.01402 -0.0577493
0.245116 1.01923 -0.0578346
0.245207 1.00925 -0.0572048
0.266061 1.0091 -0.0573136
0.25568 1.00418 -0.0569978
0.245342 0.999264 -0.0565913
0.245561 0.9793 -0.0553287
0.235154 0.974391 -0.0548303
0.307517 0.958918 -0.0546045
0.327889 0.958809 -0.0549068
0.348236 0.958718 -0.0550024
0.317683 0.96385 -0.0550614
0.338031 0.963746 -0.0553343
0.358377 0.963668 -0.0553525
0.327833 0.968786 -0.0555425
0.348193 0.968695 -0.0556362
0.307452 0.9689 -0.0552357
0.337979 0.973727 -0.0559645
0.358337 0.973649 -0.0559889
0.32778 0.978771 -0.0561776
0.348151 0.978679 -0.0562689
0.317621 0.973835 -0.0557008
0.317566 0.983816 -0.0563194
0.337936 0.983711 -0.0566018
0.358302 0.983631 -0.0566307
0.307387 0.978886 -0.0558678
0.348111 0.988658 -0.0569052
0.327723 0.988752 -0.0568173
0.307324 0.988868 -0.0564867
0.337899 0.993688 -0.0572305
0.358272 0.993608 -0.0572629
0.317519 0.993797 -0.0569458
0.327679 0.998732 -0.057467
0.348073 0.998638 -0.0575582
0.307273 0.998848 -0.0571257
0.337847 1.00367 -0.0579018
0.358227 1.00359 -0.0579294
0.317455 1.00378 -0.0576126
0.327622 1.00871 -0.0581095
0.348027 1.00862 -0.0582018
0.307199 1.00883 -0.0577601
0.337792 1.01365 -0.0585599
0.358182 1.01357 -0.0585849
0.317386 1.01376 -0.0582681
0.307141 1.01881 -0.0584209
0.327572 1.01869 -0.0587747
0.347985 1.0186 -0.0588645
0.337755 1.02363 -0.0592075
0.358151 1.02355 -0.059235
0.317339 1.02374 -0.0589198
0.23464 1.02433 -0.0581239
0.286545 1.02892 -0.0588777
0.244978 1.02921 -0.0584576
0.265889 1.02906 -0.0585935
0.255477 1.02414 -0.0582545
0.23452 1.03432 -0.0587863
0.29679 1.03385 -0.0592066
0.276219 1.03398 -0.0590021
0.25537 1.03412 -0.0588736
0.234224 1.0643 -0.0606912
0.23414 1.07428 -0.0613057
0.234047 1.08427 -0.0619236
0.244878 1.0392 -0.0591062
0.265792 1.03904 -0.0592272
0.286477 1.03891 -0.0595062
0.234407 1.04432 -0.0594256
0.23431 1.0543 -0.0600607
0.276134 1.04396 -0.0596288
0.296725 1.04383 -0.0598408
0.25528 1.04411 -0.059503
0.244788 1.04919 -0.0597437
0.286399 1.04888 -0.0601217
0.265716 1.04903 -0.0598543
0.29665 1.05382 -0.060468
0.25518 1.05409 -0.0600689
0.276066 1.05395 -0.060242
0.244691 1.05918 -0.0603891
0.265609 1.05901 -0.060487
0.286329 1.05887 -0.0607725
0.275981 1.06393 -0.0609072
0.296586 1.06381 -0.0611271
0.255089 1.06408 -0.0607139
0.244595 1.06917 -0.0610221
0.286252 1.06886 -0.0614035
0.265527 1.069 -0.06112
0.296501 1.07378 -0.0618114
0.254967 1.07406 -0.0613617
0.275905 1.07392 -0.061563
0.244499 1.07916 -0.0616685
0.265416 1.07897 -0.0617618
0.286177 1.07884 -0.0620422
0.244421 1.08915 -0.0622902
0.275805 1.0839 -0.0621869
0.296429 1.08378 -0.0624187
0.254857 1.08405 -0.0619817
0.286092 1.08882 -0.0626632
0.265329 1.08896 -0.0623819
0.307071 1.02879 -0.059022
0.347942 1.02858 -0.0594999
0.327523 1.02868 -0.0594247
0.317275 1.03372 -0.0595452
0.337714 1.03362 -0.0598323
0.358112 1.03354 -0.059879
0.307008 1.03878 -0.0596491
0.327473 1.03866 -0.0600435
0.3479 1.03857 -0.0601365
0.337659 1.0436 -0.0604814
0.358068 1.04351 -0.0605282
0.317218 1.04371 -0.0602013
0.306932 1.04876 -0.0602609
[...]
POINT_DATA 21614
VECTORS alpha float
-2.66172e-07 2.00268e-05 -1.2479e-06
-2.99078e-07 2.02271e-05 -1.21922e-06
-2.58177e-07 2.00437e-05 -1.25469e-06
8.45831e-07 -7.01448e-09 5.84847e-08
8.67356e-07 -6.79085e-09 5.69121e-08
-2.08481e-07 1.88212e-05 -1.20739e-06
-2.96888e-07 2.02442e-05 -1.22232e-06
-2.62855e-07 2.00601e-05 -1.26808e-06
8.31417e-07 -6.84217e-09 6.03875e-08
8.522e-07 -6.60477e-09 5.75153e-08
-1.99869e-07 1.88369e-05 -1.20506e-06
8.83538e-07 -6.38566e-09 4.0863e-08
8.35709e-07 -7.25816e-09 3.33473e-08
9.39354e-07 -8.57159e-09 2.90938e-08
9.22805e-07 -8.34401e-09 2.96934e-08
9.05119e-07 -8.10388e-09 3.06747e-08
-3.76059e-07 1.91258e-05 -1.13822e-06
-3.64618e-07 1.91433e-05 -1.16112e-06
8.87951e-07 -7.89313e-09 3.19655e-08
8.92174e-07 -7.95628e-09 -1.95221e-08
8.70392e-07 -7.67169e-09 3.30095e-08
-3.6201e-07 1.91613e-05 -1.16664e-06
8.77078e-07 -7.73357e-09 -1.78579e-08
-3.46114e-07 1.91779e-05 -1.1584e-06
8.53765e-07 -7.48222e-09 3.34179e-08
8.60411e-07 -7.52391e-09 -1.60836e-08
-3.53519e-07 1.91954e-05 -1.18814e-06
-3.26551e-07 1.9212e-05 -1.15803e-06
8.44326e-07 -7.31565e-09 -1.31395e-08
8.60363e-07 -7.18025e-09 5.56949e-08
8.82563e-07 -6.95921e-09 5.63677e-08
8.98866e-07 -6.55728e-09 4.11416e-08
-2.66513e-07 2.00096e-05 -1.24194e-06
-2.95497e-07 2.0211e-05 -1.24071e-06
-2.01183e-07 1.88056e-05 -1.1958e-06
8.79722e-07 -7.41862e-09 5.59613e-08
9.0209e-07 -7.18341e-09 5.74519e-08
9.17796e-07 -6.75021e-09 4.10622e-08
-2.62643e-07 1.99916e-05 -1.25041e-06
-2.92333e-07 2.0193e-05 -1.26619e-06
-1.93392e-07 1.87886e-05 -1.19809e-06
9.20039e-07 -7.37903e-09 5.75755e-08
8.97631e-07 -7.63445e-09 5.68907e-08
-2.78308e-07 2.01199e-05 -1.2411e-06
9.16447e-07 -7.86736e-09 5.48416e-08
-2.54474e-07 1.99741e-05 -1.24402e-06
9.39504e-07 -7.62407e-09 5.76049e-08
-1.81886e-07 1.87723e-05 -1.2031e-06
9.54748e-07 -7.15145e-09 4.10359e-08
-2.70792e-07 2.01567e-05 -1.24279e-06
-2.82293e-07 2.01389e-05 -1.24579e-06
-2.59343e-07 1.9956e-05 -1.25568e-06
-1.83833e-07 1.87552e-05 -1.21628e-06
9.3523e-07 -8.09916e-09 5.58788e-08
9.57694e-07 -7.83549e-09 5.87505e-08
-2.57389e-07 1.99377e-05 -1.26086e-06
-1.8904e-07 1.87386e-05 -1.22713e-06
9.77222e-07 -8.05573e-09 5.86239e-08
-2.52867e-07 1.99195e-05 -1.24329e-06
9.73047e-07 -8.56768e-09 5.54051e-08
9.94968e-07 -8.27643e-09 5.91399e-08
1.0098e-06 -7.74286e-09 4.34975e-08
-1.85094e-07 1.87209e-05 -1.23542e-06
9.55536e-07 -8.34808e-09 5.70321e-08
9.92392e-07 -7.54796e-09 4.33635e-08
9.72529e-07 -7.34622e-09 4.24736e-08
-2.59627e-07 2.01745e-05 -1.23638e-06
9.35681e-07 -6.94143e-09 4.17342e-08
-3.82724e-07 1.91073e-05 -1.15364e-06
-4.26581e-07 1.72253e-05 -1.01497e-06
9.56939e-07 -8.81268e-09 2.83956e-08
9.08425e-07 -8.18595e-09 -2.17146e-08
-3.78217e-07 1.90872e-05 -1.14257e-06
9.81531e-07 -9.14907e-09 2.88614e-08
9.31569e-07 -8.4875e-09 -2.39895e-08
-3.75439e-07 1.90684e-05 -1.13704e-06
1.00008e-06 -9.40673e-09 2.9442e-08
-4.01312e-07 1.90493e-05 -1.16476e-06
9.47671e-07 -8.69704e-09 -2.71058e-08
1.022e-06 -9.71163e-09 2.84186e-08
9.68537e-07 -8.98197e-09 -2.90033e-08
-4.27039e-07 1.90299e-05 -1.19518e-06
1.04076e-06 -1.00045e-08 2.81994e-08
9.84694e-07 -9.21365e-09 -3.36171e-08
-4.56893e-07 1.90107e-05 -1.22833e-06
1.06122e-06 -1.02943e-08 2.94321e-08
1.00533e-06 -9.49692e-09 -3.50685e-08
-4.6582e-07 1.89903e-05 -1.22342e-06
1.08588e-06 -1.06571e-08 3.04703e-08
1.03007e-06 -9.82423e-09 -3.48839e-08
-4.32722e-07 1.71132e-05 -1.02104e-06
-4.34258e-07 1.71328e-05 -1.01496e-06
-4.25427e-07 1.71529e-05 -9.68549e-07
-4.06231e-07 1.71711e-05 -9.51716e-07
-3.97161e-07 1.71893e-05 -9.30992e-07
9.44352e-07 -8.05357e-09 -1.28904e-07
9.24268e-07 -7.87619e-09 -1.24415e-07
-4.04418e-07 1.72061e-05 -9.64214e-07
9.05375e-07 -7.61962e-09 -1.22614e-07
-2.94951e-07 2.01013e-05 -1.24346e-06
-2.3966e-07 1.98999e-05 -1.23819e-06
-1.88926e-07 1.87033e-05 -1.24582e-06
1.01363e-06 -8.5115e-09 5.84784e-08
9.90844e-07 -8.81596e-09 5.36976e-08
1.02788e-06 -7.98122e-09 4.32928e-08
-3.14652e-07 2.00815e-05 -1.24084e-06
-2.32649e-07 1.98803e-05 -1.24764e-06
1.03757e-06 -8.80076e-09 5.86008e-08
1.0519e-06 -8.21617e-09 4.41972e-08
-1.85673e-07 1.86844e-05 -1.23707e-06
1.01528e-06 -9.09219e-09 5.41832e-08
-2.45822e-07 1.98617e-05 -1.26413e-06
-1.87449e-07 1.86658e-05 -1.23292e-06
-3.87869e-07 1.99818e-05 -1.32394e-06
-3.26434e-07 2.0063e-05 -1.27942e-06
1.03354e-06 -9.356e-09 5.47312e-08
1.05609e-06 -9.04143e-09 5.85876e-08
1.06997e-06 -8.45554e-09 4.43461e-08
-3.57285e-07 2.00431e-05 -1.31039e-06
-3.70787e-07 2.0023e-05 -1.33057e-06
-3.74183e-07 2.00026e-05 -1.3271e-06
-2.5511e-07 1.98417e-05 -1.27638e-06
-1.89304e-07 1.86467e-05 -1.22184e-06
1.05656e-06 -9.63644e-09 5.5736e-08
1.0789e-06 -9.34604e-09 5.83174e-08
1.09297e-06 -8.67681e-09 4.508e-08
-2.59019e-07 1.98217e-05 -1.28765e-06
-1.96387e-07 1.86276e-05 -1.22151e-06
1.07583e-06 -9.93421e-09 5.55609e-08
1.09916e-06 -9.63703e-09 5.80184e-08
1.11307e-06 -8.95872e-09 4.47984e-08
-2.72819e-07 1.98017e-05 -1.27558e-06
-2.03291e-07 1.86081e-05 -1.20486e-06
1.09579e-06 -1.02252e-08 5.69273e-08
1.1193e-06 -9.9299e-09 5.74747e-08
1.13303e-06 -9.18911e-09 4.46972e-08
-2.74439e-07 1.97813e-05 -1.27558e-06
-2.10489e-07 1.85894e-05 -1.19555e-06
1.11959e-06 -1.0532e-08 5.82313e-08
1.15698e-06 -9.48768e-09 4.44254e-08
1.14341e-06 -1.02617e-08 5.69909e-08
-3.07256e-08 8.706e-06 -5.8874e-07
-2.41624e-08 7.54632e-06 -5.13725e-07
-4.68158e-08 1.14449e-05 -7.74631e-07
9.62238e-07 -3.24148e-09 2.01986e-08
9.7543e-07 -2.68242e-09 1.9963e-08
-3.0711e-08 9.9838e-06 -6.73336e-07
9.30849e-07 -4.53565e-09 2.01236e-08
-9.70759e-08 1.50385e-05 -9.76961e-07
-6.59597e-08 1.31343e-05 -8.6119e-07
9.58671e-07 -2.59113e-09 2.0069e-08
-2.91836e-08 9.99303e-06 -6.7243e-07
-2.78186e-08 8.71392e-06 -5.87951e-07
-2.11851e-08 7.55332e-06 -5.12818e-07
9.4667e-07 -3.92772e-09 1.69076e-08
-1.32945e-07 1.7025e-05 -1.10921e-06
9.14586e-07 -4.39218e-09 2.04005e-08
-9.65e-08 1.50512e-05 -9.79646e-07
-6.43296e-08 1.31461e-05 -8.66287e-07
-4.31007e-08 1.1455e-05 -7.72112e-07
8.98811e-07 -5.76987e-09 3.1837e-08
9.13416e-07 -5.17184e-09 2.47275e-08
-2.82607e-08 8.72209e-06 -5.89687e-07
-2.07647e-08 7.56049e-06 -5.14504e-07
9.30156e-07 -3.78424e-09 1.74627e-08
9.4541e-07 -3.14065e-09 2.03809e-08
-4.5513e-09 6.44866e-06 -4.44056e-07
-2.78127e-09 5.37368e-06 -3.73219e-07
-7.07378e-09 4.30246e-06 -2.99876e-07
-1.25742e-09 3.22882e-06 -2.25984e-07
-2.19015e-09 2.15288e-06 -1.50607e-07
-4.86634e-10 1.07637e-06 -7.52945e-08
9.87461e-07 -2.23258e-09 1.63781e-08
-4.91977e-09 6.45496e-06 -4.41972e-07
-2.73623e-09 5.37899e-06 -3.71189e-07
-6.87462e-09 4.30671e-06 -2.98868e-07
9.95321e-07 -1.64121e-09 1.42118e-08
1.00452e-06 -1.34208e-09 1.27979e-08
1.01257e-06 -1.21204e-09 8.83929e-09
-1.05105e-09 3.23202e-06 -2.25199e-07
-2.08354e-09 2.15501e-06 -1.50033e-07
-3.69279e-10 1.07744e-06 -7.49895e-08
1.018e-06 -5.16495e-10 1.06636e-08
1.02171e-06 -2.88563e-10 8.24253e-09
1.02278e-06 -2.27081e-10 -2.30768e-09
9.70102e-07 -2.12584e-09 1.66628e-08
9.77999e-07 -1.56624e-09 1.47042e-08
9.8699e-07 -1.28214e-09 1.29608e-08
9.94847e-07 -1.17125e-09 8.88817e-09
1.00018e-06 -4.91401e-10 1.0596e-08
1.00384e-06 -2.77474e-10 8.19821e-09
1.00489e-06 -2.30138e-10 -2.53063e-09
9.49339e-07 -2.02177e-09 1.69154e-08
9.57257e-07 -1.49453e-09 1.49862e-08
9.66049e-07 -1.22289e-09 1.30362e-08
-4.7518e-09 6.46095e-06 -4.43579e-07
-2.68186e-09 5.38398e-06 -3.72432e-07
-6.73394e-09 4.31071e-06 -3.00234e-07
9.78962e-07 -4.66091e-10 1.04553e-08
9.82562e-07 -2.64921e-10 8.11432e-09
-7.00002e-10 3.23505e-06 -2.25867e-07
-1.88104e-09 2.15704e-06 -1.5028e-07
-2.50577e-10 1.07846e-06 -7.50982e-08
9.15016e-07 -5.93287e-09 3.14393e-08
9.29602e-07 -5.3202e-09 2.43901e-08
9.47221e-07 -4.66877e-09 2.02922e-08
-9.22453e-08 1.50254e-05 -9.79784e-07
-6.3161e-08 1.31227e-05 -8.61152e-07
-4.22505e-08 1.1434e-05 -7.72034e-07
-1.26044e-07 1.70106e-05 -1.10713e-06
9.67115e-07 -4.79944e-09 2.0382e-08
9.34921e-07 -6.12455e-09 3.17299e-08
9.49358e-07 -5.48506e-09 2.45863e-08
-1.1992e-07 1.69329e-05 -1.12444e-06
-1.11119e-07 1.69486e-05 -1.12501e-06
-1.06885e-07 1.69638e-05 -1.12176e-06
-1.06863e-07 1.69796e-05 -1.11474e-06
-3.96062e-08 1.14229e-05 -7.73888e-07
-8.76708e-08 1.5011e-05 -9.85195e-07
-5.8421e-08 1.31097e-05 -8.68197e-07
-5.8364e-08 1.30982e-05 -8.69269e-07
-3.70684e-08 1.1412e-05 -7.68508e-07
9.67884e-07 -5.63204e-09 2.44768e-08
9.85539e-07 -4.92996e-09 2.08445e-08
-8.43924e-08 1.49971e-05 -9.84117e-07
1.00607e-06 -5.07173e-09 2.05319e-08
9.73572e-07 -6.50846e-09 3.14393e-08
9.88012e-07 -5.8029e-09 2.44792e-08
-3.52694e-08 1.14008e-05 -7.67379e-07
-8.23739e-08 1.49832e-05 -9.8474e-07
-5.33202e-08 1.30852e-05 -8.7079e-07
1.00547e-06 -5.95807e-09 2.43883e-08
1.02318e-06 -5.2082e-09 2.07758e-08
-5.36521e-08 1.3073e-05 -8.76296e-07
-3.48839e-08 1.13891e-05 -7.72892e-07
1.0444e-06 -5.33479e-09 2.16129e-08
-3.60673e-08 1.13777e-05 -7.79793e-07
-4.68679e-08 1.30466e-05 -8.82425e-07
-3.2026e-08 1.13656e-05 -7.78924e-07
1.04544e-06 -6.26074e-09 2.5549e-08
1.06349e-06 -5.4683e-09 2.23628e-08
-8.15604e-08 1.49545e-05 -9.95588e-07
-4.93213e-08 1.30599e-05 -8.81833e-07
1.03112e-06 -7.07391e-09 3.28989e-08
1.0127e-06 -6.86832e-09 3.27899e-08
1.02639e-06 -6.11314e-09 2.52705e-08
-8.20566e-08 1.49688e-05 -9.91253e-07
9.91501e-07 -6.67931e-09 3.23228e-08
9.5332e-07 -6.30405e-09 3.21382e-08
-1.17436e-07 1.69949e-05 -1.11104e-06
9.63765e-07 -4.05663e-09 1.66755e-08
9.79193e-07 -3.3494e-09 2.01674e-08
9.9263e-07 -2.77815e-09 1.9897e-08
-2.73012e-08 9.97423e-06 -6.77062e-07
-2.58868e-08 8.69729e-06 -5.92159e-07
-2.12337e-08 7.53872e-06 -5.14865e-07
9.9959e-07 -3.45003e-09 1.99569e-08
1.01305e-06 -2.85743e-09 1.98806e-08
9.8399e-07 -4.19966e-09 1.65345e-08
-2.46603e-08 8.68908e-06 -5.94021e-07
-2.09819e-08 7.53144e-06 -5.16803e-07
1.01849e-06 -3.56119e-09 1.98531e-08
1.03206e-06 -2.94921e-09 1.99225e-08
-2.55189e-08 9.96448e-06 -6.81788e-07
-2.81379e-08 9.95518e-06 -6.82021e-07
-2.45202e-08 8.68066e-06 -5.94989e-07
-2.2364e-08 7.52393e-06 -5.19077e-07
1.00295e-06 -4.33589e-09 1.65498e-08
1.05354e-06 -3.03086e-09 1.99914e-08
1.03994e-06 -3.66183e-09 1.97893e-08
1.02417e-06 -4.48978e-09 1.58706e-08
-2.21803e-08 8.6719e-06 -5.98145e-07
-2.06821e-08 7.5163e-06 -5.19426e-07
-2.27325e-08 9.94501e-06 -6.83396e-07
1.05747e-06 -3.77033e-09 1.97101e-08
1.07115e-06 -3.1117e-09 2.04252e-08
1.04174e-06 -4.62388e-09 1.5812e-08
-2.1441e-08 8.66288e-06 -6.02146e-07
-2.03589e-08 7.50835e-06 -5.22867e-07
-2.24709e-08 9.93469e-06 -6.8963e-07
1.07958e-06 -3.86129e-09 2.02171e-08
1.09347e-06 -3.18596e-09 2.12712e-08
1.06395e-06 -4.75593e-09 1.64378e-08
-2.09504e-08 8.65403e-06 -6.01988e-07
-2.04696e-08 7.50055e-06 -5.22882e-07
-2.27367e-08 9.92459e-06 -6.91004e-07
1.0835e-06 -4.86257e-09 1.74255e-08
1.09987e-06 -3.97003e-09 2.05455e-08
1.1141e-06 -3.28437e-09 2.15297e-08
-1.72377e-08 8.64464e-06 -6.00513e-07
-1.78882e-08 7.49224e-06 -5.23268e-07
-1.77899e-08 9.91382e-06 -6.90483e-07
-1.29257e-07 1.69168e-05 -1.14368e-06
1.08302e-06 -5.61039e-09 2.28814e-08
1.05072e-06 -7.29027e-09 3.29506e-08
1.06447e-06 -6.44373e-09 2.57607e-08
-8.13202e-08 1.49397e-05 -9.9647e-07
-1.27767e-07 1.68996e-05 -1.13663e-06
-3.44524e-08 1.13537e-05 -7.81972e-07
-4.41494e-08 1.30328e-05 -8.87116e-07
-7.83087e-08 1.49245e-05 -9.9604e-07
-1.3635e-07 1.68478e-05 -1.12672e-06
-1.36095e-07 1.68296e-05 -1.12998e-06
-1.47439e-07 1.68119e-05 -1.13202e-06
1.07393e-06 -7.51804e-09 3.37534e-08
1.08869e-06 -6.60591e-09 2.61778e-08
1.10657e-06 -5.77031e-09 2.30084e-08
-1.35073e-07 1.68828e-05 -1.1322e-06
-1.2843e-07 1.68658e-05 -1.12566e-06
-4.15947e-08 1.30189e-05 -8.86893e-07
-3.17036e-08 1.13408e-05 -7.8793e-07
-7.5519e-08 1.49084e-05 -9.95275e-07
1.09159e-06 -7.71921e-09 3.48115e-08
1.12627e-06 -5.90708e-09 2.32673e-08
1.10799e-06 -6.78766e-09 2.63358e-08
-3.1499e-08 1.13289e-05 -7.90831e-07
-7.1117e-08 1.48933e-05 -9.94861e-07
-4.05063e-08 1.30058e-05 -8.8671e-07
1.114e-06 -7.94454e-09 3.53846e-08
1.13199e-06 -6.9683e-09 2.68915e-08
1.14947e-06 -6.08244e-09 2.37922e-08
-4.25957e-08 1.29914e-05 -8.90817e-07
-3.43209e-08 1.13163e-05 -7.90259e-07
-7.29299e-08 1.48774e-05 -9.95035e-07
1.1333e-06 -8.13686e-09 3.53924e-08
1.17015e-06 -6.22593e-09 2.4229e-08
1.1522e-06 -7.17172e-09 2.69279e-08
-3.56813e-08 1.13033e-05 -7.90012e-07
-7.31047e-08 1.48612e-05 -9.95323e-07
-4.55763e-08 1.29771e-05 -8.94972e-07
1.15267e-06 -8.36089e-09 3.54332e-08
1.17327e-06 -7.3439e-09 2.7429e-08
1.19066e-06 -6.37622e-09 2.47549e-08
1.17698e-06 -8.57171e-09 3.59098e-08
-4.58909e-08 1.29625e-05 -8.91612e-07
-3.66133e-08 1.12907e-05 -7.82977e-07
-7.78414e-08 1.48447e-05 -9.94699e-07
1.21586e-06 -6.5157e-09 2.48402e-08
1.19796e-06 -7.53817e-09 2.73116e-08
1.1025e-06 -4.96783e-09 1.82494e-08
1.13453e-06 -3.37306e-09 2.16878e-08
1.12009e-06 -4.08101e-09 2.09909e-08
-1.90222e-08 9.9034e-06 -6.88511e-07
-1.71254e-08 8.63511e-06 -6.00446e-07
-1.82204e-08 7.48392e-06 -5.22441e-07
1.12606e-06 -5.10591e-09 1.87632e-08
1.14444e-06 -4.22067e-09 2.08911e-08
1.15871e-06 -3.49036e-09 2.19205e-08
-1.61417e-08 8.62543e-06 -6.03246e-07
-1.71801e-08 7.47546e-06 -5.24611e-07
-1.516e-08 9.89191e-06 -6.93256e-07
1.14592e-06 -5.20727e-09 1.97295e-08
1.18039e-06 -3.58161e-09 2.22469e-08
1.16553e-06 -4.34442e-09 2.12432e-08
-1.35937e-08 9.88146e-06 -6.95261e-07
-1.35481e-08 8.61576e-06 -6.06029e-07
-1.51271e-08 7.46702e-06 -5.25814e-07
1.16934e-06 -5.34881e-09 2.05269e-08
1.18971e-06 -4.46962e-09 2.1631e-08
1.20434e-06 -3.69242e-09 2.26884e-08
-1.30348e-08 8.60603e-06 -6.06646e-07
-1.54644e-08 7.45848e-06 -5.26286e-07
-1.50071e-08 9.87048e-06 -6.98116e-07
1.19033e-06 -5.45394e-09 2.13444e-08
1.21128e-06 -4.62052e-09 2.18801e-08
1.22613e-06 -3.82608e-09 2.26534e-08
-1.48705e-08 9.85893e-06 -6.97056e-07
-1.56225e-08 8.59578e-06 -6.05934e-07
-1.80458e-08 7.4495e-06 -5.25597e-07
1.21134e-06 -5.56577e-09 2.25994e-08
1.23672e-06 -5.68178e-09 2.297e-08
1.23326e-06 -4.73334e-09 2.22729e-08
1.24831e-06 -3.91412e-09 2.32291e-08
-1.5107e-08 9.84719e-06 -6.9599e-07
-1.34654e-08 8.58576e-06 -6.03805e-07
-1.70026e-08 7.44068e-06 -5.23782e-07
1.25917e-06 -4.90146e-09 2.23428e-08
1.2742e-06 -4.03791e-09 2.31603e-08
1.00566e-06 -2.34114e-09 1.58052e-08
1.01348e-06 -1.71086e-09 1.37514e-08
1.02279e-06 -1.39554e-09 1.24675e-08
1.03101e-06 -1.25219e-09 8.72897e-09
-3.84236e-09 6.44241e-06 -4.42685e-07
-2.13921e-09 5.36846e-06 -3.73425e-07
-6.10999e-09 4.29821e-06 -2.99982e-07
1.02632e-06 -2.4237e-09 1.57068e-08
1.03398e-06 -1.76368e-09 1.37121e-08
1.04333e-06 -1.44159e-09 1.22903e-08
1.05167e-06 -1.29619e-09 8.70689e-09
1.04546e-06 -2.4616e-09 1.62707e-08
1.0538e-06 -1.82805e-09 1.32205e-08
1.06318e-06 -1.48849e-09 1.18358e-08
1.07166e-06 -1.32962e-09 8.65521e-09
-3.38124e-09 6.43585e-06 -4.44044e-07
-1.15622e-09 5.36297e-06 -3.75241e-07
-5.41533e-09 4.29379e-06 -3.00921e-07
-5.45717e-09 4.28962e-06 -3.00064e-07
-4.31537e-09 6.42936e-06 -4.44714e-07
-1.17737e-09 5.3576e-06 -3.75386e-07
1.06671e-06 -2.51681e-09 1.66899e-08
1.08431e-06 -2.58927e-09 1.71389e-08
1.10664e-06 -2.64096e-09 1.80957e-08
1.12747e-06 -2.73451e-09 1.8073e-08
1.07566e-06 -1.88623e-09 1.30845e-08
1.08515e-06 -1.53726e-09 1.16393e-08
1.09385e-06 -1.37877e-09 8.61096e-09
-3.05876e-09 6.42274e-06 -4.44746e-07
-4.52577e-09 4.28497e-06 -3.01128e-07
-2.47986e-10 5.35205e-06 -3.74594e-07
1.09386e-06 -1.94477e-09 1.26724e-08
1.10331e-06 -1.58029e-09 1.13638e-08
1.1121e-06 -1.40802e-09 8.65805e-09
-3.07675e-09 6.41588e-06 -4.46551e-07
3.10279e-10 5.34636e-06 -3.7585e-07
-4.08031e-09 4.28039e-06 -3.01814e-07
1.11642e-06 -1.98873e-09 1.29608e-08
1.12593e-06 -1.6195e-09 1.14749e-08
1.13494e-06 -1.45494e-09 8.97505e-09
-2.84533e-09 6.40918e-06 -4.46176e-07
8.86992e-10 5.34077e-06 -3.75644e-07
-3.74229e-09 4.27591e-06 -3.00979e-07
1.14785e-06 -1.6646e-09 1.13037e-08
1.13772e-06 -2.04014e-09 1.29595e-08
1.15677e-06 -1.50281e-09 9.07813e-09
-1.64335e-09 6.40196e-06 -4.4784e-07
1.91452e-09 5.33475e-06 -3.7538e-07
-2.90459e-09 4.27109e-06 -3.00716e-07
1.0365e-06 -5.46706e-10 1.05012e-08
1.04023e-06 -2.96305e-10 8.28454e-09
1.04127e-06 -2.19764e-10 -2.2757e-09
-2.04597e-09 2.15075e-06 -1.50456e-07
-7.83205e-10 3.22549e-06 -2.26389e-07
-4.30889e-10 1.07527e-06 -7.52312e-08
1.05723e-06 -5.66805e-10 1.06509e-08
1.061e-06 -3.10502e-10 8.37243e-09
1.06202e-06 -2.31029e-10 -2.41542e-09
1.07723e-06 -5.82175e-10 1.061e-08
1.081e-06 -3.06789e-10 8.50121e-09
1.08197e-06 -2.09565e-10 -2.29028e-09
-9.85631e-10 3.22228e-06 -2.27027e-07
-1.81574e-09 2.14854e-06 -1.50792e-07
-4.85449e-10 1.0742e-06 -7.53643e-08
-2.00646e-09 2.14643e-06 -1.50539e-07
-1.20478e-09 3.21901e-06 -2.26614e-07
-5.71258e-10 1.0731e-06 -7.53016e-08
1.09952e-06 -6.03266e-10 1.07306e-08
1.10334e-06 -3.2221e-10 8.52186e-09
1.10432e-06 -2.18216e-10 -2.51349e-09
-1.15854e-09 3.21563e-06 -2.27111e-07
-1.7359e-09 2.14409e-06 -1.51019e-07
-5.88963e-10 1.07197e-06 -7.54777e-08
1.1178e-06 -6.24697e-10 1.07095e-08
1.12162e-06 -3.31673e-10 8.57505e-09
1.12229e-06 -2.33834e-10 -2.6235e-09
-1.15886e-09 3.21219e-06 -2.27543e-07
-1.57669e-09 2.1418e-06 -1.51222e-07
-6.12218e-10 1.07082e-06 -7.55642e-08
1.14069e-06 -6.49064e-10 1.09275e-08
1.14458e-06 -3.51344e-10 8.83411e-09
1.14549e-06 -2.23971e-10 -2.53746e-09
-1.25119e-09 3.2088e-06 -2.27326e-07
-1.56805e-09 2.13953e-06 -1.51091e-07
-6.75175e-10 1.06969e-06 -7.54818e-08
1.16303e-06 -6.738e-10 1.10492e-08
1.16671e-06 -3.73373e-10 9.01296e-09
1.16766e-06 -2.37481e-10 -2.55131e-09
-8.68734e-10 3.20514e-06 -2.27506e-07
-1.41547e-09 2.1371e-06 -1.50936e-07
-6.91825e-10 1.06848e-06 -7.53761e-08
1.66415e-14 1.11478e-10 -7.87469e-12
4.25994e-14 1.11714e-10 -7.90887e-12
1.14793e-06 -2.79504e-09 1.85887e-08
1.17809e-06 -1.54367e-09 9.10579e-09
1.15883e-06 -2.09607e-09 1.25219e-08
1.16863e-06 -1.71206e-09 1.12438e-08
-3.20805e-09 6.39493e-06 -4.4844e-07
1.75682e-09 5.32898e-06 -3.74255e-07
-3.35637e-09 4.26644e-06 -3.00744e-07
1.17215e-06 -2.88122e-09 1.90449e-08
1.18334e-06 -2.15162e-09 1.22779e-08
1.19323e-06 -1.76438e-09 1.10845e-08
1.20289e-06 -1.59167e-09 8.95877e-09
-2.12761e-09 6.38738e-06 -4.4997e-07
2.99602e-09 5.32269e-06 -3.73893e-07
-2.72403e-09 4.26139e-06 -3.00896e-07
1.19405e-06 -2.93026e-09 1.98328e-08
1.21815e-06 -3.0313e-09 2.02892e-08
1.24066e-06 -3.1105e-09 2.06496e-08
1.26291e-06 -3.22717e-09 2.11471e-08
1.28936e-06 -3.30032e-09 2.15671e-08
1.2059e-06 -2.20446e-09 1.21157e-08
1.21599e-06 -1.81382e-09 1.09936e-08
1.22584e-06 -1.63084e-09 8.90945e-09
-2.49065e-09 6.38037e-06 -4.50769e-07
3.534e-09 5.31694e-06 -3.72921e-07
-2.62074e-09 4.25676e-06 -3.004e-07
1.23001e-06 -2.25926e-09 1.19084e-08
1.24018e-06 -1.86458e-09 1.08089e-08
1.25015e-06 -1.68452e-09 8.66387e-09
-1.51253e-09 6.37268e-06 -4.5252e-07
4.44952e-09 5.31053e-06 -3.74663e-07
-2.23578e-09 4.2516e-06 -3.00929e-07
1.25304e-06 -2.3404e-09 1.114e-08
1.26359e-06 -1.93083e-09 1.03468e-08
1.27384e-06 -1.71651e-09 8.52263e-09
-2.54139e-09 4.24644e-06 -3.00964e-07
-2.55357e-09 6.36493e-06 -4.52453e-07
3.66104e-09 5.3041e-06 -3.74748e-07
1.27522e-06 -2.40418e-09 1.11825e-08
1.28594e-06 -1.97095e-09 1.03264e-08
1.29655e-06 -1.76914e-09 8.70761e-09
-1.76247e-09 6.35731e-06 -4.49628e-07
4.49965e-09 5.29771e-06 -3.73516e-07
-2.64895e-09 4.24127e-06 -3.00599e-07
1.30251e-06 -2.49869e-09 1.09352e-08
1.31342e-06 -2.04593e-09 1.02025e-08
1.32415e-06 -1.82314e-09 8.62205e-09
1.18403e-06 -6.94947e-10 1.12154e-08
1.18804e-06 -3.71151e-10 9.23082e-09
1.18893e-06 -2.10572e-10 -2.3022e-09
-1.57074e-09 3.20162e-06 -2.27742e-07
-1.61155e-09 2.13477e-06 -1.50921e-07
-8.56599e-10 1.0673e-06 -7.5374e-08
1.2089e-06 -7.02677e-10 1.14529e-08
1.21295e-06 -3.77942e-10 9.42948e-09
1.21385e-06 -2.1487e-10 -2.34102e-09
-1.18256e-09 3.1978e-06 -2.27931e-07
-1.32767e-09 2.13222e-06 -1.50961e-07
-7.87569e-10 1.06603e-06 -7.53993e-08
1.23197e-06 -7.3035e-10 1.16938e-08
1.23607e-06 -3.8946e-10 9.69926e-09
1.23697e-06 -2.08151e-10 -2.15955e-09
-1.38834e-09 2.12987e-06 -1.50694e-07
-9.58038e-10 3.19412e-06 -2.27933e-07
-8.13004e-10 1.0648e-06 -7.53672e-08
1.25632e-06 -7.48005e-10 1.18672e-08
1.26047e-06 -4.04281e-10 9.7634e-09