# vtk DataFile Version 3.0
vtk output
ASCII
DATASET POLYDATA
POINTS 2525 float
0.149983 0.130216 -0.00696308
0.16999 0.130173 -0.00717822
0.240016 0.125116 -0.00690159
0.189994 0.130216 -0.00722476
0.210003 0.130188 -0.00722697
0.230011 0.130144 -0.00724016
0.109972 0.130077 -0.00652318
0.159992 0.1252 -0.00676798
0.18 0.125147 -0.00695002
0.129977 0.130259 -0.00668824
0.200002 0.125203 -0.00692257
0.22001 0.125167 -0.00691763
0.119986 0.125041 -0.00644286
0.139986 0.125249 -0.00655239
0.180008 0.115163 -0.00625974
0.149995 0.120216 -0.00632775
0.170001 0.120183 -0.00652653
0.24002 0.115148 -0.00625825
0.190001 0.12022 -0.00661521
0.210009 0.120206 -0.00657305
0.230016 0.120172 -0.00657713
0.109992 0.120098 -0.00584023
0.0999814 0.125117 -0.00592006
0.0899737 0.130157 -0.00587636
0.160003 0.115212 -0.00611353
0.129991 0.120246 -0.00608553
0.190013 0.110173 -0.00610434
0.210017 0.110168 -0.0060375
0.230022 0.110147 -0.00603447
0.200009 0.115218 -0.00627982
0.220015 0.115196 -0.00625392
0.249992 0.130328 -0.00725634
0.120005 0.115075 -0.00574684
0.180019 0.105145 -0.00570221
0.150006 0.110194 -0.00574887
0.170011 0.110175 -0.00592833
0.139999 0.115246 -0.00591502
0.200022 0.10516 -0.00583683
0.220024 0.105143 -0.0057933
0.240026 0.105111 -0.00582927
0.290009 0.130246 -0.00729373
0.31002 0.130199 -0.00733456
0.330037 0.130241 -0.00728195
0.350036 0.130212 -0.0072778
0.370028 0.130169 -0.00728319
0.280005 0.125268 -0.00693756
0.300014 0.125226 -0.00697663
0.269998 0.130299 -0.0072829
0.320035 0.125265 -0.00694635
0.340034 0.125243 -0.00694535
0.360027 0.125203 -0.00695924
0.260001 0.125313 -0.00693745
0.310012 0.120218 -0.00664151
0.330033 0.120288 -0.00657604
0.350027 0.120265 -0.00658901
0.370014 0.12022 -0.00662549
0.310007 0.110139 -0.00629158
0.26001 0.115242 -0.00641725
0.280013 0.115222 -0.00642563
0.30001 0.115193 -0.00646982
0.250007 0.120312 -0.00658799
0.270012 0.120299 -0.00657326
0.290013 0.120272 -0.00659779
0.350022 0.110187 -0.00621834
0.370007 0.110162 -0.00623441
0.320034 0.115251 -0.00644282
0.340027 0.115236 -0.00643872
0.360015 0.115203 -0.00645933
0.260021 0.105182 -0.00595062
0.280018 0.105168 -0.00596308
0.300011 0.105151 -0.00601264
0.25002 0.110205 -0.00622958
0.270019 0.110194 -0.00621387
0.290013 0.110178 -0.00624021
0.320034 0.10521 -0.0059949
0.340024 0.105199 -0.00597467
0.36001 0.105177 -0.00597933
0.330029 0.11023 -0.00623683
0.389992 0.130176 -0.00735614
0.409996 0.130184 -0.00736114
0.429998 0.130183 -0.0073664
0.450003 0.130182 -0.00736634
0.470002 0.130185 -0.00733877
0.49 0.130178 -0.00730937
0.379997 0.125187 -0.00705497
0.399998 0.125205 -0.0070425
0.419999 0.125208 -0.00704168
0.440004 0.125192 -0.00706356
0.460002 0.125204 -0.00703579
0.479999 0.125199 -0.00701297
0.390003 0.120245 -0.00669117
0.410001 0.120256 -0.00667298
0.43 0.120249 -0.00667301
0.450004 0.120245 -0.0066838
0.47 0.12025 -0.00666349
0.489995 0.120233 -0.00665942
0.38001 0.115256 -0.0063984
0.400006 0.115281 -0.00635713
0.420002 0.115283 -0.00634438
0.440007 0.115258 -0.00638124
0.460002 0.115276 -0.0063516
0.479996 0.115266 -0.00634521
0.390013 0.110312 -0.00601283
0.410007 0.110325 -0.00597933
0.430001 0.110312 -0.00598061
0.450005 0.110307 -0.00600331
0.469998 0.110312 -0.00599042
0.489991 0.110285 -0.00601018
0.380024 0.105293 -0.00580392
0.400015 0.105318 -0.00575619
0.420006 0.105316 -0.00574778
0.44001 0.105292 -0.00580305
0.460001 0.105311 -0.00576642
0.479993 0.105298 -0.00576555
0.509999 0.130207 -0.007354
0.529997 0.130216 -0.00737397
0.549996 0.130209 -0.00740003
0.570003 0.130211 -0.00739266
0.590005 0.130217 -0.00738926
0.610009 0.13021 -0.00739396
0.500005 0.125203 -0.00704889
0.52 0.125229 -0.00704956
0.539997 0.125234 -0.00706677
0.559995 0.125216 -0.00709735
0.580002 0.125239 -0.00706518
0.600003 0.125239 -0.00707163
0.620005 0.125221 -0.0070972
0.510004 0.120262 -0.00669917
0.529999 0.12028 -0.00669378
0.549995 0.120272 -0.00671256
0.570001 0.120276 -0.00669418
0.59 0.120288 -0.00669543
0.609999 0.120279 -0.00672281
0.50001 0.115256 -0.00640944
0.520004 0.115296 -0.00637662
0.539998 0.115305 -0.00637741
0.559993 0.115282 -0.00640983
0.579999 0.115313 -0.00636226
0.599995 0.115314 -0.00638006
0.619991 0.115289 -0.00643394
0.500012 0.105228 -0.00592061
0.55999 0.105241 -0.0059544
0.510008 0.110268 -0.006174
0.530001 0.110288 -0.00616059
0.549994 0.11028 -0.00618304
0.619984 0.105256 -0.00592738
0.569999 0.110282 -0.00615597
0.589994 0.110299 -0.00614703
0.609987 0.110292 -0.00617524
0.549992 0.100266 -0.00564401
0.520007 0.105284 -0.00591417
0.539998 0.105292 -0.00592315
0.579994 0.105295 -0.00590121
0.599985 0.105301 -0.00590288
0.629972 0.130169 -0.00728356
0.649964 0.130212 -0.00727794
0.669963 0.130241 -0.00728197
0.68998 0.130199 -0.00733398
0.709991 0.130246 -0.00729347
0.639973 0.125203 -0.00695941
0.659966 0.125243 -0.00694536
0.679965 0.125265 -0.00694634
0.699986 0.125226 -0.00697629
0.719995 0.125268 -0.00693747
0.730002 0.130299 -0.00728283
0.629986 0.12022 -0.00662581
0.649973 0.120265 -0.00658905
0.669967 0.120288 -0.00657597
0.739999 0.125313 -0.00693744
0.689988 0.120218 -0.00664103
0.629993 0.110162 -0.0062331
0.649978 0.110188 -0.00621761
0.639985 0.115203 -0.0064594
0.659973 0.115236 -0.00643861
0.679966 0.115251 -0.00644273
0.689993 0.110138 -0.00629215
0.69999 0.115193 -0.00646959
0.719987 0.115221 -0.00642563
0.73999 0.115242 -0.00641728
0.709987 0.120272 -0.00659764
0.729988 0.120299 -0.00657325
0.749993 0.120312 -0.00658794
0.63999 0.105178 -0.00597834
0.659976 0.105199 -0.00597409
0.679966 0.105211 -0.00599441
0.669971 0.11023 -0.00623636
0.699989 0.105151 -0.00601303
0.719982 0.105168 -0.00596315
0.739979 0.105182 -0.0059506
0.709987 0.110178 -0.00624036
0.729981 0.110194 -0.0062138
0.74998 0.110205 -0.00622954
0.750008 0.130328 -0.00725637
0.759984 0.125116 -0.006901
0.769989 0.130144 -0.00723974
0.789997 0.130188 -0.00722683
0.810006 0.130216 -0.00722469
0.83001 0.130173 -0.00717826
0.850017 0.130216 -0.00696312
0.77999 0.125167 -0.00691743
0.799998 0.125203 -0.00692252
0.82 0.125147 -0.00695006
0.840008 0.1252 -0.00676802
0.870023 0.130259 -0.00668828
0.890028 0.130078 -0.00652318
0.75998 0.115148 -0.00625778
0.769984 0.120172 -0.00657682
0.789991 0.120206 -0.00657299
0.809999 0.12022 -0.00661515
0.860014 0.125249 -0.00655243
0.819992 0.115163 -0.00625977
0.829999 0.120183 -0.00652657
0.850006 0.120216 -0.00632778
0.880014 0.125042 -0.00644272
0.769978 0.110147 -0.00603451
0.789983 0.110168 -0.00603738
0.809987 0.110173 -0.00610431
0.779985 0.115196 -0.00625383
0.799991 0.115218 -0.00627983
0.839998 0.115212 -0.00611357
0.870009 0.120246 -0.00608556
0.890008 0.120098 -0.00584039
0.900019 0.125117 -0.00591992
0.910026 0.130157 -0.00587612
0.759974 0.105111 -0.00582954
0.779976 0.105143 -0.00579329
0.799978 0.10516 -0.00583677
0.819982 0.105144 -0.00570274
0.829989 0.110174 -0.00592887
0.849994 0.110193 -0.00574933
0.860001 0.115246 -0.00591505
0.879995 0.115075 -0.00574698
0.05991 0.195198 -0.00609956
0.0599141 0.185163 -0.0061599
0.059925 0.175115 -0.00611718
0.0599436 0.165075 -0.0059269
0.0499405 0.180141 -0.00551315
0.0499356 0.190174 -0.00548952
0.0599666 0.155077 -0.00562937
0.0499531 0.170117 -0.00543401
0.119962 0.135042 -0.00706774
0.0999626 0.135107 -0.00650768
0.0799679 0.135182 -0.00573382
0.109952 0.14007 -0.00708595
0.0899558 0.140133 -0.00640218
0.119942 0.145065 -0.00760601
0.0999429 0.145098 -0.00703596
0.0799505 0.145159 -0.00621767
0.10993 0.150091 -0.00759236
0.0899345 0.150128 -0.00686124
0.119921 0.155098 -0.00812102
0.0999211 0.155114 -0.00749918
0.0799307 0.155149 -0.00665766
0.109911 0.160153 -0.00800178
0.0899155 0.16015 -0.00726161
0.119903 0.165202 -0.00845685
0.0999031 0.165167 -0.00785651
0.0799127 0.165164 -0.00697146
0.109894 0.170213 -0.00835056
0.0898983 0.170179 -0.00760465
0.0998904 0.175247 -0.00804294
0.119889 0.17528 -0.00872232
0.0798975 0.175188 -0.00724035
0.109881 0.180286 -0.00855202
0.0898878 0.180243 -0.0077317
0.119874 0.185328 -0.00897915
0.099877 0.185278 -0.00826278
0.0798897 0.185235 -0.00730065
0.109869 0.190322 -0.00871377
0.0898771 0.19027 -0.00785993
0.0798822 0.195254 -0.00733092
0.069896 0.190224 -0.00676294
0.0699015 0.180195 -0.00676779
0.0699129 0.170173 -0.00660696
0.0699298 0.160171 -0.00631934
0.0699494 0.150196 -0.00595124
0.0699659 0.140219 -0.00551842
0.0499297 0.200183 -0.00539473
0.0598997 0.20522 -0.00593302
0.0599078 0.215224 -0.00557756
0.119863 0.195368 -0.00907108
0.0998644 0.195311 -0.00832582
0.0698886 0.200237 -0.0066929
0.109857 0.200359 -0.00870227
0.0898628 0.200296 -0.00781967
0.119856 0.2054 -0.00894816
0.0998563 0.205338 -0.0081843
0.0798684 0.205274 -0.00716731
0.109858 0.210375 -0.0084533
0.0898645 0.210311 -0.00755963
0.0998662 0.215344 -0.00781132
0.119865 0.215407 -0.0085745
0.0798797 0.215279 -0.00679989
0.089879 0.22031 -0.00707804
0.109871 0.220374 -0.00795714
0.0998847 0.225334 -0.00718915
0.119882 0.225396 -0.00793163
0.0798991 0.22527 -0.00620965
0.0899024 0.230292 -0.00634776
0.109893 0.230354 -0.007189
0.0999123 0.235304 -0.00629822
0.119907 0.235362 -0.00699644
0.109924 0.24031 -0.00613238
0.0698993 0.220245 -0.00596283
0.0698842 0.210247 -0.00642432
0.119944 0.245294 -0.00575882
0.0799328 0.235237 -0.00538888
0.0899441 0.240217 -0.0053687
0.0699319 0.230257 -0.00532692
0.159979 0.135203 -0.00740761
0.179991 0.135158 -0.00758942
0.139968 0.135246 -0.00718252
0.149965 0.140224 -0.00759011
0.16998 0.140194 -0.00781193
0.129949 0.140258 -0.00729649
0.159965 0.145228 -0.00802529
0.179983 0.145203 -0.00819157
0.139947 0.145251 -0.00777636
0.169969 0.150248 -0.00838624
0.129925 0.150261 -0.00787959
0.149947 0.150249 -0.00823445
0.159951 0.15527 -0.00860972
0.179974 0.155272 -0.00875549
0.139927 0.155268 -0.00834745
0.169957 0.160302 -0.00897701
0.129903 0.160269 -0.0084392
0.149931 0.160281 -0.00878859
0.179963 0.165354 -0.00928586
0.139909 0.165287 -0.00889319
0.159937 0.165311 -0.00916688
0.129885 0.170279 -0.00893245
0.149916 0.170321 -0.00927908
[...]
POINT_DATA 2525
VECTORS alpha float
2.30405e-05 -4.26694e-08 -2.78351e-07
2.69878e-05 -6.83857e-08 -2.29142e-07
-3.80238e-09 1.05743e-05 -7.49234e-07
3.0633e-05 -3.23666e-08 7.52915e-09
3.38305e-05 -6.21077e-08 -3.17916e-09
3.65241e-05 -9.55223e-08 -3.58739e-08
1.51514e-05 -5.91533e-08 -4.2475e-07
-8.47876e-09 8.60791e-06 -6.10364e-07
-8.41215e-09 1.05579e-05 -7.64871e-07
1.90081e-05 -2.51382e-08 -3.28829e-07
-8.22631e-09 1.14952e-05 -8.25829e-07
-5.95848e-09 1.13918e-05 -8.16707e-07
-3.92804e-09 3.79044e-06 -2.4151e-07
-6.94866e-09 6.00188e-06 -4.14841e-07
-6.61408e-09 1.20839e-05 -8.49095e-07
2.55362e-05 -3.22748e-08 -2.74151e-07
2.89809e-05 -6.35077e-08 -2.3956e-07
-1.6894e-09 1.13925e-05 -7.77258e-07
3.20411e-05 -5.28268e-09 1.09443e-07
3.46219e-05 -4.20347e-08 4.0705e-08
3.67116e-05 -8.30284e-08 -4.92806e-08
1.81879e-05 -5.46304e-08 -4.26544e-07
-4.38015e-09 3.90501e-06 -2.31258e-07
1.17062e-05 -3.52431e-08 -4.25386e-07
-7.39161e-09 1.03282e-05 -7.22438e-07
2.18669e-05 -6.76664e-09 -3.18021e-07
3.06431e-05 5.23471e-09 1.56794e-07
3.25484e-05 -2.23223e-08 6.30658e-08
3.40131e-05 -5.24051e-08 -4.71259e-08
-5.93932e-09 1.27927e-05 -9.00187e-07
-3.50835e-09 1.2439e-05 -8.65659e-07
3.87455e-05 -4.45643e-08 1.7449e-08
-3.54861e-09 5.62653e-06 -3.45918e-07
-2.48285e-09 1.32457e-05 -9.18426e-07
2.54939e-05 -1.19276e-08 -2.36386e-07
2.82779e-05 -4.31192e-08 -2.21547e-07
-6.83234e-09 7.83991e-06 -5.39899e-07
-9.47369e-10 1.37214e-05 -1.00683e-06
1.11825e-09 1.31489e-05 -9.46057e-07
2.75003e-09 1.1914e-05 -8.36637e-07
4.19518e-05 -9.3415e-08 -6.91245e-08
4.31078e-05 -1.09618e-07 -9.6677e-08
4.40725e-05 -5.06976e-08 2.1953e-08
4.48916e-05 -8.2428e-08 3.51396e-09
4.55977e-05 -1.15325e-07 -2.34076e-08
-2.79926e-10 8.09391e-06 -5.8138e-07
3.80932e-10 6.8508e-06 -4.94365e-07
4.05219e-05 -7.5931e-08 -3.80853e-08
2.40971e-10 5.76985e-06 -4.15195e-07
3.69089e-10 4.84956e-06 -3.47512e-07
4.45691e-10 4.07214e-06 -2.89044e-07
-3.18464e-10 9.40696e-06 -6.73178e-07
4.13994e-05 -9.06583e-08 -1.35719e-07
4.20567e-05 -2.76193e-08 2.22548e-10
4.26148e-05 -7.32926e-08 -4.83156e-08
4.31043e-05 -1.20274e-07 -1.03695e-07
3.69481e-05 -4.15939e-08 -1.3306e-07
1.69821e-09 1.00306e-05 -7.34551e-07
2.10429e-09 8.57648e-06 -6.31379e-07
2.30976e-09 7.23491e-06 -5.33511e-07
3.83568e-05 -1.35686e-08 7.33642e-08
3.96206e-05 -4.00722e-08 -7.30814e-09
4.06042e-05 -6.80078e-08 -8.31607e-08
3.76923e-05 -3.80648e-08 -5.51629e-09
3.80106e-05 -5.99533e-08 -5.01098e-08
1.24212e-09 6.09138e-06 -4.48786e-07
9.91863e-10 5.12728e-06 -3.75668e-07
7.82192e-10 4.31717e-06 -3.13155e-07
4.08441e-09 1.04062e-05 -7.91725e-07
4.08225e-09 8.85397e-06 -6.73829e-07
3.91781e-09 7.45178e-06 -5.66547e-07
3.50963e-05 -1.60889e-08 6.99e-08
3.58871e-05 -2.55368e-08 -6.66628e-09
3.64764e-05 -3.53675e-08 -8.12615e-08
2.30647e-09 6.27556e-06 -4.77714e-07
1.79794e-09 5.29435e-06 -3.99924e-07
1.38017e-09 4.47308e-06 -3.34623e-07
3.73406e-05 -1.81391e-08 3.00623e-08
4.62569e-05 3.05891e-08 -3.71919e-09
4.67817e-05 8.17417e-09 -1.1832e-08
4.72094e-05 -1.52648e-08 -7.81753e-09
4.75342e-05 2.27476e-08 6.21392e-08
4.7753e-05 -4.83393e-09 7.03618e-08
4.78617e-05 -3.24456e-08 6.85963e-08
2.89319e-10 3.39748e-06 -2.42182e-07
1.49185e-10 2.79133e-06 -2.01109e-07
5.12737e-11 2.21947e-06 -1.60643e-07
1.13286e-10 1.66204e-06 -1.20121e-07
4.46045e-11 1.10874e-06 -7.9758e-08
6.94415e-12 5.54925e-07 -3.94723e-08
4.35763e-05 4.47771e-08 6.54436e-08
4.39554e-05 4.53757e-09 2.06875e-08
4.42686e-05 -3.67077e-08 -1.68451e-08
4.45077e-05 3.444e-08 6.30549e-08
4.46701e-05 -1.35989e-08 2.89702e-08
4.47514e-05 -6.18456e-08 -1.18967e-08
6.46864e-10 3.61876e-06 -2.50263e-07
3.34335e-10 2.98212e-06 -2.08e-07
1.09395e-10 2.3772e-06 -1.66164e-07
1.88163e-10 1.78331e-06 -1.24149e-07
4.9351e-11 1.19117e-06 -8.25536e-08
-1.35111e-11 5.96633e-07 -4.08877e-08
3.8334e-05 5.19688e-08 1.01872e-07
3.86025e-05 -1.28414e-11 3.22537e-08
3.88295e-05 -5.28944e-08 -3.41807e-08
3.90041e-05 3.93929e-08 5.75308e-08
3.91244e-05 -2.18454e-08 -5.61182e-09
3.91854e-05 -8.33723e-08 -7.22949e-08
1.02511e-09 3.76745e-06 -2.5972e-07
5.42243e-10 3.11419e-06 -2.15829e-07
1.889e-10 2.48859e-06 -1.72485e-07
2.67756e-10 1.87005e-06 -1.28989e-07
5.84505e-11 1.25074e-06 -8.59462e-08
-3.13491e-11 6.27002e-07 -4.26949e-08
4.78616e-05 4.03286e-08 -3.7271e-08
4.77531e-05 2.42943e-09 -5.69341e-08
4.75345e-05 -3.52915e-08 -6.87803e-08
4.72102e-05 3.18625e-08 1.34766e-08
4.67824e-05 -1.88407e-10 -2.0489e-09
4.62576e-05 -3.11196e-08 -2.71821e-08
7.61333e-16 4.49545e-11 -3.16317e-12
8.32803e-12 -5.54835e-07 3.97416e-08
5.15753e-11 -1.10866e-06 8.03057e-08
1.30035e-10 -1.66199e-06 1.20954e-07
3.12121e-11 -2.2196e-06 1.61848e-07
1.34911e-10 -2.79146e-06 2.02786e-07
2.85155e-10 -3.3976e-06 2.44392e-07
4.47514e-05 6.89265e-08 4.1319e-08
4.46703e-05 1.10968e-08 -1.63602e-08
4.4508e-05 -4.64076e-08 -6.91943e-08
4.42694e-05 5.26653e-08 2.34566e-08
4.3956e-05 3.39152e-09 -3.25214e-08
4.35769e-05 -4.4809e-08 -9.35545e-08
6.55188e-15 7.37666e-11 -5.00624e-12
-1.22963e-11 -5.9651e-07 4.12091e-08
5.61911e-11 -1.19109e-06 8.3203e-08
2.04998e-10 -1.78329e-06 1.2513e-07
8.7179e-11 -2.37743e-06 1.67567e-07
3.18072e-10 -2.9824e-06 2.09948e-07
6.40991e-10 -3.61906e-06 2.52831e-07
1.9138e-14 2.0513e-10 -1.44432e-11
2.89824e-10 -1.86741e-06 1.34776e-07
3.91849e-05 6.88661e-08 6.22748e-08
3.91246e-05 1.26202e-08 -9.67583e-09
3.90048e-05 -4.33223e-08 -7.97044e-08
9.59494e-10 -3.76356e-06 2.7163e-07
3.88309e-05 5.70122e-08 5.17043e-08
3.86041e-05 1.00863e-08 -2.00105e-08
3.8336e-05 -3.60565e-08 -9.33423e-08
3.22718e-05 -2.78687e-08 -8.23577e-08
-2.29686e-11 -6.25832e-07 4.48635e-08
7.74797e-11 -1.24871e-06 9.02401e-08
2.02047e-10 -2.48505e-06 1.81052e-07
5.64607e-10 -3.11019e-06 2.26772e-07
4.55985e-05 1.15313e-07 2.40499e-08
4.48924e-05 8.24313e-08 -3.12247e-09
4.40734e-05 5.07151e-08 -2.18274e-08
4.31087e-05 1.09667e-07 9.57927e-08
4.19526e-05 9.3454e-08 6.85796e-08
4.46162e-10 -4.07206e-06 2.89094e-07
3.70283e-10 -4.84947e-06 3.47562e-07
2.43218e-10 -5.76973e-06 4.15214e-07
3.84913e-10 -6.85067e-06 4.94266e-07
-2.7547e-10 -8.09375e-06 5.8128e-07
4.05227e-05 7.59621e-08 3.78536e-08
4.31049e-05 1.20103e-07 1.04489e-07
4.26154e-05 7.31644e-08 4.87202e-08
4.20574e-05 2.75329e-08 -1.99834e-10
-3.14008e-10 -9.40678e-06 6.73115e-07
4.14001e-05 9.06536e-08 1.34862e-07
3.80131e-05 6.00235e-08 4.86874e-08
3.76949e-05 3.81492e-08 4.71337e-09
7.81368e-10 -4.31707e-06 3.13223e-07
9.91633e-10 -5.12717e-06 3.75741e-07
1.24281e-09 -6.09127e-06 4.48831e-07
3.69508e-05 4.15344e-08 1.34071e-07
2.31275e-09 -7.23478e-06 5.33392e-07
2.10733e-09 -8.57633e-06 6.31256e-07
1.70081e-09 -1.00305e-05 7.34465e-07
4.06049e-05 6.80279e-08 8.26909e-08
3.96213e-05 4.01137e-08 7.19546e-09
3.83574e-05 1.36289e-08 -7.31491e-08
1.38009e-09 -4.47292e-06 3.34619e-07
1.79838e-09 -5.29423e-06 3.99939e-07
2.30769e-09 -6.27548e-06 4.77726e-07
3.73433e-05 1.82322e-08 -3.02283e-08
3.92041e-09 -7.45169e-06 5.66468e-07
4.08479e-09 -8.85391e-06 6.73724e-07
4.08644e-09 -1.04062e-05 7.91621e-07
3.6479e-05 3.53535e-08 8.18547e-08
3.58896e-05 2.55655e-08 6.83238e-09
3.50986e-05 1.61565e-08 -7.01612e-08
3.87462e-05 4.45515e-08 -1.73571e-08
-3.79591e-09 -1.05741e-05 7.4912e-07
3.65248e-05 9.55377e-08 3.51724e-08
3.38311e-05 6.212e-08 2.87864e-09
3.06335e-05 3.23762e-08 -7.48943e-09
2.69882e-05 6.83966e-08 2.29146e-07
2.30408e-05 4.26802e-08 2.78356e-07
-5.95176e-09 -1.13917e-05 8.16586e-07
-8.22119e-09 -1.14951e-05 8.2577e-07
-8.40982e-09 -1.05578e-05 7.64869e-07
-8.47677e-09 -8.60786e-06 6.10364e-07
1.90084e-05 2.51478e-08 3.28836e-07
1.51518e-05 5.88174e-08 4.24979e-07
-1.68275e-09 -1.13924e-05 7.77097e-07
3.67121e-05 8.30454e-08 4.85788e-08
3.46224e-05 4.2053e-08 -4.09187e-08
3.20416e-05 5.30111e-09 -1.09245e-07
-6.94724e-09 -6.00187e-06 4.14842e-07
-6.6137e-09 -1.20839e-05 8.49096e-07
2.89813e-05 6.35147e-08 2.39563e-07
2.55365e-05 3.22832e-08 2.74155e-07
-3.92426e-09 -3.79047e-06 2.41535e-07
3.40151e-05 5.23863e-08 4.76046e-08
3.25502e-05 2.23293e-08 -6.30121e-08
3.06445e-05 -5.2057e-09 -1.57153e-07
-3.50189e-09 -1.24389e-05 8.65486e-07
-5.93492e-09 -1.27926e-05 9.00077e-07
-7.3913e-09 -1.03282e-05 7.2244e-07
2.18672e-05 6.77488e-09 3.18027e-07
1.81882e-05 5.47296e-08 4.26573e-07
-4.37689e-09 -3.90505e-06 2.31284e-07
1.17065e-05 3.50461e-08 4.25506e-07
2.75397e-09 -1.1914e-05 8.36526e-07
1.12206e-09 -1.31489e-05 9.45891e-07
-9.44713e-10 -1.37214e-05 1.00668e-06
-2.48728e-09 -1.32457e-05 9.18547e-07
2.82791e-05 4.32416e-08 2.21667e-07
2.54948e-05 1.20322e-08 2.36478e-07
-6.832e-09 -7.83991e-06 5.39902e-07
-3.54859e-09 -5.62653e-06 3.45943e-07
-9.97284e-09 3.47528e-05 2.87372e-07
-2.26848e-08 2.87682e-05 -1.99247e-07
-2.73641e-08 2.4734e-05 -4.92649e-07
-2.70655e-08 2.23479e-05 -6.65119e-07
-2.4209e-05 2.3725e-08 1.58399e-06
-3.41751e-05 3.40116e-09 2.27776e-06
-2.49789e-08 2.12953e-05 -7.66163e-07
-1.53567e-05 3.87331e-08 9.69883e-07
-2.61914e-09 1.87024e-06 -1.19411e-07
-3.11414e-09 2.1887e-06 -1.29041e-07
-1.03729e-08 7.62858e-06 -3.9898e-07
9.63706e-06 -3.34315e-08 -2.89514e-07
6.65218e-06 -2.05366e-08 -2.62289e-07
-7.28136e-11 4.55707e-08 -2.78913e-09
-1.13957e-09 7.00801e-07 -3.96876e-08
-1.01446e-08 6.54973e-06 -3.28254e-07
1.22114e-06 -3.0899e-09 -3.83826e-08
-7.7767e-07 1.69406e-09 3.23231e-08
2.44436e-09 -1.43626e-06 8.06545e-08
5.18643e-10 -2.97675e-07 1.52751e-08
-1.00608e-08 6.09161e-06 -2.75318e-07
-1.04447e-05 9.31628e-09 3.34951e-07
-1.0821e-05 1.17261e-08 4.6963e-07
3.77471e-09 -2.266e-06 1.05579e-07
8.33278e-10 -4.88611e-07 2.07703e-08
-1.06688e-08 6.56943e-06 -2.41398e-07
-2.55554e-05 -6.58537e-09 8.43016e-07
-2.35817e-05 8.96559e-09 1.07347e-06
-7.23058e-10 4.94529e-07 -1.45037e-08
3.02351e-09 -2.07117e-06 6.99601e-08
-1.18761e-08 8.32231e-06 -2.17068e-07
-4.41424e-05 -8.4885e-08 1.4604e-06
-3.90266e-05 -7.33197e-08 1.75342e-06
5.05583e-10 -4.37213e-07 8.15031e-09
-3.42832e-09 3.04951e-06 -4.55371e-08
-1.20104e-08 1.173e-05 -1.27538e-07
-6.60334e-05 -1.54334e-07 2.29691e-06
-5.69461e-05 -1.33427e-07 2.66546e-06
-8.5192e-09 1.71417e-05 9.69823e-08
-4.61156e-05 -9.45051e-08 2.67685e-06
-3.22246e-05 -1.51342e-09 1.90317e-06
-2.00754e-05 2.47101e-08 1.15879e-06
-9.87547e-06 1.9235e-08 5.45336e-07
-1.69964e-06 4.06234e-09 8.84756e-08
4.488e-06 -9.67027e-09 -2.17035e-07
-4.49736e-05 -8.87194e-09 3.05176e-06
3.76606e-08 4.2957e-05 1.11047e-06
9.51283e-08 5.36191e-05 2.41705e-06
-1.51574e-09 3.07632e-06 3.09749e-09
-3.10324e-09 7.58682e-06 2.66735e-08
-6.14056e-05 -1.57058e-07 3.6668e-06
-9.08701e-05 -2.55185e-07 3.28618e-06
-7.69825e-05 -2.15013e-07 3.74365e-06
4.22852e-09 8.91857e-06 2.18748e-07
9.16523e-09 1.45092e-05 3.68608e-07
1.97469e-08 2.49055e-05 6.42014e-07
-0.000118073 -3.50378e-07 4.33766e-06
-9.86008e-05 -3.04466e-07 4.85097e-06
3.37999e-08 2.41963e-05 1.19141e-06
2.14235e-08 1.75295e-05 8.7938e-07
5.40884e-08 3.5335e-05 1.67453e-06
-0.000121152 -3.77529e-07 5.87985e-06
-0.000146918 -4.40123e-07 5.35624e-06
8.42396e-08 3.69774e-05 2.78935e-06
6.15425e-08 2.93151e-05 2.30404e-06
1.15195e-07 4.86743e-05 3.45141e-06
-0.000143898 -4.36737e-07 6.71934e-06
-0.000176565 -5.17486e-07 6.22222e-06
1.70611e-07 5.31211e-05 5.48507e-06
1.35961e-07 4.46328e-05 4.8678e-06
-0.000204045 -5.49337e-07 6.70081e-06
-9.42827e-05 -2.88026e-07 5.61243e-06
-7.76468e-05 -2.25449e-07 4.71018e-06
2.53731e-07 6.36094e-05 8.95839e-06
2.08648e-07 6.50992e-05 6.23576e-06
-0.000164252 -8.59223e-09 7.04305e-06
-0.000110721 -1.99405e-09 6.21217e-06
-7.43885e-09 6.63825e-06 -4.61539e-07
-8.7991e-09 8.74655e-06 -6.26119e-07
-4.86811e-09 3.98398e-06 -2.68338e-07
1.73778e-05 -2.29196e-08 -2.23629e-07
2.15642e-05 -3.91666e-08 -1.77945e-07
1.33027e-05 -1.5963e-08 -2.57769e-07
-5.18411e-09 4.54797e-06 -2.98517e-07
-7.83129e-09 6.74404e-06 -4.57441e-07
-2.12344e-09 1.94508e-06 -1.22343e-07
1.18929e-05 -5.36261e-09 -7.86791e-08
4.18976e-06 -1.94627e-09 -8.4962e-08
7.85894e-06 -7.18855e-09 -1.04681e-07
-2.91132e-09 2.5309e-06 -1.50634e-07
-6.04533e-09 4.71237e-06 -2.90489e-07
-1.07422e-10 1.08438e-07 -6.13465e-09
-2.77626e-06 -2.25746e-09 1.75937e-08
-8.806e-06 -6.27324e-09 1.77809e-07
-6.12659e-06 -2.46988e-09 7.78357e-08
-3.87088e-09 2.88736e-06 -1.52162e-07
1.07069e-09 -1.23391e-06 5.91276e-08
-9.60914e-10 8.53297e-07 -4.35628e-08
-2.59909e-05 -5.61645e-08 5.22731e-07
-2.50138e-05 -4.71933e-08 3.09499e-07
-2.30183e-05 -3.67527e-08 1.47498e-07
1.18287e-09 -1.72288e-06 6.16245e-08
1.48819e-10 -1.44371e-07 5.60319e-09
-2.12245e-09 1.58109e-06 -6.50061e-08
-4.90285e-05 -1.02135e-07 6.51328e-07
-4.91861e-05 -9.1307e-08 3.51907e-07
-4.74796e-05 -1.08493e-07 1.00971e-06
4.06176e-10 -9.44364e-07 1.87974e-08
5.14117e-11 -6.00672e-08 1.3744e-09
-1.46936e-09 1.17707e-06 -2.98026e-08
-7.81477e-05 -1.67878e-07 1.11692e-06
-8.1371e-05 -1.51509e-07 6.67198e-07
-7.31585e-05 -1.73203e-07 1.62463e-06
-9.27806e-09 9.89599e-06 -7.07096e-07
-7.90856e-09 1.00492e-05 -7.23569e-07
-6.14266e-09 9.47615e-06 -6.83195e-07
2.5608e-05 -3.37803e-08 -4.66897e-09
2.92579e-05 -5.12829e-08 1.46323e-08
3.24319e-05 -7.09743e-08 1.9527e-08
-9.25046e-09 8.06629e-06 -5.59916e-07
-9.00753e-09 8.45973e-06 -5.95902e-07
-8.06741e-09 8.13875e-06 -5.77979e-07
1.59905e-05 -1.85456e-08 3.34067e-08
1.98289e-05 -2.4358e-08 6.03057e-08
2.3273e-05 -3.02974e-08 8.19483e-08
-7.92993e-09 6.14344e-06 -3.98891e-07
-8.54996e-09 6.73369e-06 -4.45585e-07
-8.32168e-09 6.64448e-06 -4.45224e-07
8.74785e-07 -9.98876e-11 4.25524e-09
4.5088e-06 -7.81318e-11 2.36113e-08
7.89219e-06 5.75223e-10 4.17568e-08
-5.65006e-09 4.32946e-06 -2.42751e-07
-6.79329e-09 5.0424e-06 -2.89512e-07
-7.13104e-09 5.13683e-06 -3.00076e-07
-2.04729e-05 -1.3146e-08 -1.36108e-07
-1.75793e-05 -1.53761e-08 -1.15084e-07
-1.47244e-05 -1.62e-08 -9.11202e-08
-4.3463e-09 3.62528e-06 -1.66516e-07
-5.08613e-09 3.82329e-06 -1.8085e-07
-3.07715e-09 2.8971e-06 -1.28284e-07
-4.85394e-05 -3.4264e-08 -3.44971e-07
-4.7069e-05 -4.64289e-08 -3.12155e-07
-4.53566e-05 -5.71821e-08 -2.6679e-07
-1.55707e-09 2.20495e-06 -6.11781e-08
-2.63126e-09 2.80896e-06 -8.31332e-08
-3.47824e-09 2.99744e-06 -9.37221e-08
-8.35578e-05 -5.58662e-08 -6.52536e-07
-8.43339e-05 -8.12132e-08 -5.72953e-07
-8.45251e-05 -1.05847e-07 -4.64634e-07
-8.44155e-05 -1.30956e-07 -3.42511e-07
-5.25836e-10 1.56325e-06 -2.852e-09
-1.73429e-09 2.11945e-06 -8.4889e-09
2.74299e-10 1.55779e-06 9.85375e-10
-0.000119421 -2.50619e-07 1.14076e-06
-0.000102716 -2.84407e-07 2.53232e-06
-0.000112125 -2.7034e-07 1.82198e-06
7.10555e-09 6.26362e-06 1.584e-07
2.696e-09 5.22059e-06 1.24226e-07
-3.90261e-10 4.90329e-06 1.09039e-07
-0.000135567 -4.00945e-07 3.48862e-06
-0.0001504 -3.85086e-07 2.5839e-06
-0.00016283 -3.48448e-07 1.67026e-06
3.01385e-08 1.36574e-05 7.2781e-07
1.6697e-08 1.14274e-05 6.05876e-07
7.30549e-09 1.00591e-05 5.2634e-07
-0.0001922 -5.0171e-07 3.32748e-06
-0.000210859 -4.54578e-07 2.18261e-06
-0.000170945 -5.19981e-07 4.41308e-06
8.14606e-08 2.42075e-05 2.03859e-06
5.13153e-08 2.07007e-05 1.77193e-06
2.87955e-08 1.81354e-05 1.5628e-06
-0.00020793 -6.34231e-07 5.16537e-06
-0.000236572 -6.1736e-07 3.92639e-06
-0.000262562 -5.63614e-07 2.56884e-06
1.74984e-07 3.83505e-05 4.49797e-06
1.18455e-07 3.35418e-05 4.05305e-06
7.3466e-08 2.96827e-05 3.65635e-06
-0.000243237 -6.98565e-07 5.45903e-06
-0.000279973 -6.84398e-07 4.10279e-06
-0.000314196 -6.2786e-07 2.56804e-06
2.28686e-07 5.02851e-05 7.94181e-06
1.50009e-07 4.51117e-05 7.33722e-06
3.22204e-07 5.6328e-05 8.54169e-06
0.00206196 3.33985e-06 -1.04505e-05
0.00195998 3.55683e-06 -2.25475e-05
-3.47037e-10 2.67538e-06 -1.46793e-08
-1.57335e-09 2.98805e-06 -2.18066e-08
-2.76476e-09 3.02142e-06 -2.74143e-08
-0.00012547 -1.0055e-07 -6.74525e-07
-0.000129461 -1.45758e-07 -6.55051e-07
-0.000132472 -1.90529e-07 -5.94063e-07
-0.000134824 -2.23996e-07 -4.15052e-07
3.10418e-09 4.79118e-06 1.03788e-07
2.20914e-10 4.62242e-06 9.32069e-08
-2.35511e-09 4.32555e-06 8.00598e-08
-0.000173812 -1.17193e-07 -5.59068e-07
-0.000182116 -1.86193e-07 -6.27986e-07
-0.000189015 -2.56539e-07 -6.37863e-07
1.38004e-08 9.08273e-06 4.79297e-07
6.13603e-09 8.22968e-06 4.26613e-07
-1.60902e-10 7.40476e-06 3.74203e-07
-0.000227935 -1.28275e-07 -3.55988e-07
-0.000241744 -2.29789e-07 -5.33713e-07
-0.000253714 -3.36263e-07 -6.35908e-07
3.99561e-08 1.61132e-05 1.41279e-06
2.21002e-08 1.43728e-05 1.26012e-06
7.67573e-09 1.28091e-05 1.11509e-06
-0.000286939 -1.41713e-07 -1.90609e-07
-0.000307529 -2.80857e-07 -4.7797e-07
-0.000325872 -4.29871e-07 -6.77623e-07
9.35552e-08 2.64657e-05 3.31221e-06
5.98444e-08 2.36475e-05 2.99965e-06
3.22126e-08 2.11321e-05 2.69776e-06
-0.000346941 -1.08123e-07 -3.92773e-07
-0.000375501 -2.85207e-07 -7.71396e-07
-0.000401481 -4.79919e-07 -1.04813e-06
1.29177e-07 3.65677e-05 6.18761e-06
8.12144e-08 3.29086e-05 5.66175e-06
1.8628e-07 4.06156e-05 6.71026e-06
0.00231059 1.92968e-06 9.61188e-06
0.00223956 7.86339e-07 8.29727e-06
0.00216011 -3.16759e-07 6.2753e-06
-0.000194874 -2.01823e-07 -3.9677e-07
-2.66909e-09 7.38259e-06 -5.33472e-07
-1.79474e-09 6.27175e-06 -4.55082e-07
-2.97789e-09 8.51969e-06 -6.15504e-07
3.51356e-05 -4.08097e-08 1.31908e-08
3.92096e-05 -8.38625e-08 -3.31043e-08
4.07121e-05 -8.72305e-08 -2.87287e-08
3.73845e-05 -8.92971e-08 -3.35815e-08
-4.54723e-09 7.40658e-06 -5.21249e-07
-3.84856e-09 6.46491e-06 -4.5809e-07
-3.1916e-09 5.51209e-06 -3.92057e-07
2.62981e-05 -3.38978e-08 1.45879e-08
2.88538e-05 -6.34887e-08 -8.40797e-09
3.09716e-05 -6.17259e-08 -7.14182e-10
3.27426e-05 -5.88825e-08 1.356e-08
1.09268e-05 -1.01296e-08 1.8928e-08
-4.5208e-09 6.13411e-06 -3.97604e-07
-4.04329e-09 5.39915e-06 -3.519e-07
-3.53131e-09 4.61947e-06 -3.02075e-07
1.35539e-05 -2.33837e-08 1.38737e-08
1.57775e-05 -1.91327e-08 2.21797e-08
1.76574e-05 -1.25939e-08 3.45309e-08
-4.37645e-05 6.70284e-08 -1.14555e-07
-3.54473e-09 4.82132e-06 -2.71123e-07
-3.36548e-09 4.2806e-06 -2.41774e-07
-3.09029e-09 3.67164e-06 -2.07882e-07
-1.21257e-05 2.37865e-08 -2.87187e-08
-9.78599e-06 1.69689e-08 -2.23855e-08
-7.75686e-06 7.42702e-09 -1.95358e-08
-6.02119e-06 1.1457e-09 -1.72333e-08
-2.48432e-09 3.65155e-06 -1.65198e-07
-2.51251e-09 3.26651e-06 -1.48807e-07
-2.41444e-09 2.8029e-06 -1.28381e-07
-4.22183e-05 7.52071e-08 -1.09492e-07
-4.08099e-05 4.07285e-08 -1.06188e-07
-3.9587e-05 8.87329e-09 -1.07085e-07
-1.75597e-09 2.21137e-06 -6.73738e-08
-1.46616e-09 2.88194e-06 -8.56309e-08
-1.67612e-09 2.5833e-06 -7.77134e-08
-8.45732e-05 1.51068e-07 -2.4967e-07
-8.43494e-05 9.02532e-08 -2.25644e-07
-8.41358e-05 3.0957e-08 -2.11432e-07
-6.26846e-10 5.28357e-06 -3.84081e-07
-2.83136e-10 4.43491e-06 -3.21133e-07
-3.79653e-11 3.71395e-06 -2.6667e-07
4.1996e-05 -5.69886e-08 3.37596e-08
4.3069e-05 -7.07638e-08 3.82529e-08
4.3986e-05 -8.52328e-08 3.86826e-08
-1.19934e-09 4.64679e-06 -3.29361e-07
-8.85004e-10 3.89376e-06 -2.75509e-07
-6.44289e-10 3.25061e-06 -2.28758e-07
3.42776e-05 -5.3802e-08 3.079e-08
3.55545e-05 -5.93466e-08 4.26485e-08
3.66425e-05 -6.52024e-08 5.41947e-08
-1.36109e-09 3.8894e-06 -2.60925e-07
-1.13768e-09 3.2495e-06 -2.1847e-07
-9.48512e-10 2.70064e-06 -1.81402e-07
1.92855e-05 -1.83063e-08 2.27486e-08
2.06502e-05 -1.53526e-08 2.99508e-08
2.18123e-05 -1.20389e-08 3.95677e-08
-1.19857e-09 3.08526e-06 -1.80685e-07
-1.08569e-09 2.56453e-06 -1.50537e-07
-9.70489e-10 2.11672e-06 -1.24242e-07
-4.55211e-06 1.42828e-09 -7.09318e-09
-3.28826e-06 -2.94679e-10 -4.38145e-09
-2.20959e-06 -1.05451e-09 -2.75238e-09
-9.29561e-10 2.34366e-06 -1.12355e-07
-8.7054e-10 1.93065e-06 -9.30223e-08
-7.93433e-10 1.57536e-06 -7.61447e-08
-3.86325e-05 7.11397e-09 -7.28403e-08
-3.77524e-05 -1.19858e-08 -3.71884e-08
-3.69982e-05 -2.97187e-08 -7.90468e-09
-6.72993e-10 1.83692e-06 -5.95201e-08
-6.6042e-10 1.49695e-06 -4.89796e-08
-6.1744e-10 1.20449e-06 -3.97449e-08
-8.41659e-05 2.01516e-08 -2.14798e-07
-8.4055e-05 -2.36429e-08 -8.64748e-08
-8.39549e-05 -6.55757e-08 2.82969e-08
-6.75125e-10 2.83895e-06 -2.36145e-08
-1.15871e-09 2.5234e-06 -2.16847e-08
-1.47112e-09 2.1565e-06 -1.94169e-08
-0.000137343 2.61921e-07 -1.8802e-07
-0.000139021 1.79489e-07 -2.23108e-07
-0.000140459 9.80741e-08 -2.78235e-07