# vtk DataFile Version 3.0
vtk output
ASCII
DATASET POLYDATA
POINTS 7474 float
0.189273 0.369894 -0.0209733
0.199359 0.37484 -0.0209974
0.189307 0.35992 -0.0203601
0.199385 0.364863 -0.0204209
0.209466 0.369802 -0.0204556
0.219541 0.374745 -0.0205846
0.259793 0.37493 -0.0204518
0.31991 0.374748 -0.0204838
0.339892 0.374707 -0.0203842
0.380064 0.374737 -0.0204599
0.400046 0.374705 -0.0203603
0.440051 0.374657 -0.0203887
0.460036 0.37465 -0.0203234
0.480023 0.374649 -0.0203092
0.500012 0.374654 -0.0203451
0.229629 0.369712 -0.0201172
0.249799 0.369809 -0.0200917
0.239697 0.374656 -0.0203709
0.279803 0.374861 -0.0203287
0.299769 0.374799 -0.0202912
0.329902 0.369746 -0.020122
0.359844 0.37466 -0.0203796
0.390048 0.36974 -0.0201124
0.420018 0.374668 -0.0203424
0.45003 0.36967 -0.0200659
0.490001 0.369668 -0.0200422
0.159185 0.374989 -0.0199913
0.179377 0.374887 -0.0200514
0.209494 0.35983 -0.019812
0.219564 0.364766 -0.0199809
0.259805 0.364994 -0.019861
0.26981 0.369919 -0.0200801
0.289792 0.369851 -0.0199894
0.309738 0.369791 -0.0200024
0.319908 0.364798 -0.0199054
0.339885 0.364755 -0.0198007
0.349866 0.369697 -0.0200827
0.369807 0.36966 -0.0200825
0.380052 0.364789 -0.0199026
0.40003 0.364754 -0.0198048
0.410019 0.369701 -0.0200715
0.429997 0.369675 -0.0200478
0.440026 0.3647 -0.019847
0.460008 0.364694 -0.0197838
0.479991 0.364693 -0.0197749
0.47 0.369654 -0.0200736
0.810727 0.369895 -0.0209725
0.800641 0.37484 -0.0209971
0.519977 0.37465 -0.0203078
0.539964 0.374651 -0.020322
0.559949 0.374657 -0.0203873
0.599954 0.374706 -0.0203595
0.619936 0.374738 -0.0204591
0.660107 0.374706 -0.0203854
0.68009 0.374747 -0.0204851
0.740207 0.37493 -0.0204522
0.810693 0.35992 -0.0203599
0.800615 0.364864 -0.0204204
0.790534 0.369802 -0.020455
0.780458 0.374745 -0.0205846
0.509999 0.369669 -0.0200417
0.54997 0.36967 -0.0200652
0.609952 0.36974 -0.0201124
0.579982 0.374669 -0.0203416
0.670097 0.369746 -0.0201222
0.640156 0.374659 -0.0203808
0.700231 0.374798 -0.020292
0.720197 0.37486 -0.0203293
0.750201 0.36981 -0.0200917
0.77037 0.369713 -0.0201167
0.760303 0.374655 -0.0203712
0.500024 0.364699 -0.019819
0.520009 0.364694 -0.0197747
0.539992 0.364694 -0.0197835
0.559974 0.3647 -0.0198465
0.53 0.369655 -0.020073
0.59997 0.364754 -0.0198046
0.619948 0.364789 -0.0199026
0.570003 0.369675 -0.0200477
0.589981 0.369701 -0.0200714
0.660114 0.364755 -0.0198006
0.680092 0.364799 -0.0199054
0.630193 0.369661 -0.0200828
0.650134 0.369698 -0.020083
0.740195 0.364994 -0.0198609
0.690262 0.369791 -0.0200024
0.710208 0.369852 -0.0199894
0.73019 0.369919 -0.02008
0.790506 0.35983 -0.0198117
0.780436 0.364767 -0.0199804
0.820622 0.374886 -0.0200506
0.840815 0.374989 -0.0199905
0.118613 0.495298 -0.0243081
0.108605 0.50034 -0.0235037
0.118648 0.485156 -0.0237108
0.108624 0.490205 -0.0229914
0.118671 0.475099 -0.0231317
0.108665 0.480151 -0.0224271
0.0986618 0.495264 -0.0220241
0.118711 0.465041 -0.0226003
0.118734 0.455003 -0.0220796
0.108702 0.470107 -0.0219135
0.0986936 0.485208 -0.0215309
0.118764 0.44496 -0.0215422
0.108729 0.460061 -0.0213954
0.088735 0.500348 -0.020805
0.0987273 0.475164 -0.0210225
0.118813 0.434918 -0.0210234
0.108769 0.450016 -0.0208854
0.0887387 0.490294 -0.020382
0.0987563 0.465115 -0.0205364
0.118849 0.424911 -0.0204733
0.108793 0.439983 -0.0203749
0.0987757 0.455079 -0.0200367
0.0887729 0.480251 -0.0198339
0.118905 0.414924 -0.0198966
0.108827 0.429969 -0.0198884
0.169248 0.37992 -0.0203403
0.149059 0.380013 -0.0201498
0.179325 0.384861 -0.0206522
0.159126 0.384948 -0.0206196
0.169202 0.389889 -0.0209648
0.148997 0.389971 -0.0207793
0.159073 0.394918 -0.0212171
0.179292 0.394835 -0.0212749
0.169166 0.399863 -0.0215896
0.148944 0.399937 -0.0214031
0.159033 0.404891 -0.0218462
0.179266 0.404813 -0.0219043
0.138807 0.404959 -0.0214667
0.169134 0.409846 -0.0222258
0.148897 0.409912 -0.0220336
0.158995 0.414877 -0.0224861
0.179239 0.414802 -0.0225497
0.138754 0.414938 -0.0220945
0.14885 0.419909 -0.022631
0.169103 0.41984 -0.0228687
0.158959 0.424872 -0.0231188
0.179214 0.424796 -0.0231943
0.138704 0.424929 -0.0227174
0.14881 0.429906 -0.0232469
0.169073 0.429836 -0.0235022
0.158931 0.434893 -0.0236897
0.179193 0.434824 -0.0237889
0.138666 0.434936 -0.0232562
0.169057 0.439899 -0.0240413
0.148788 0.439936 -0.0237872
0.128523 0.439968 -0.0231187
0.128555 0.429947 -0.0226637
0.12861 0.419955 -0.0220601
0.12867 0.409977 -0.0214452
0.138869 0.394993 -0.0208845
0.128764 0.400023 -0.0207823
0.138934 0.385038 -0.0202618
0.128836 0.390068 -0.0201617
0.18923 0.379862 -0.0215788
0.209439 0.379773 -0.0210694
0.229612 0.379689 -0.0207274
0.249783 0.379763 -0.0206735
0.199318 0.384805 -0.0216427
0.21952 0.384714 -0.0212081
0.239676 0.384644 -0.0209452
0.189177 0.389832 -0.0222349
0.209412 0.389748 -0.0217056
0.229599 0.389669 -0.0213392
0.24977 0.389729 -0.0212463
0.199284 0.394782 -0.0222726
0.219507 0.394694 -0.0218254
0.239671 0.39463 -0.0215363
0.18913 0.399808 -0.0229259
0.209392 0.399734 -0.0223331
0.229592 0.399658 -0.0219481
0.24976 0.39971 -0.021835
0.199255 0.404763 -0.0229566
0.219496 0.404685 -0.0224531
0.239668 0.404625 -0.0221416
0.189087 0.409809 -0.0235662
0.209373 0.409737 -0.0229748
0.229588 0.40966 -0.0225754
0.249759 0.409724 -0.0224663
0.199225 0.414769 -0.0236057
0.219485 0.414692 -0.0231001
0.239664 0.414634 -0.022774
0.189045 0.419826 -0.0242167
0.209356 0.41975 -0.0236269
0.229582 0.419671 -0.0232221
0.249758 0.419742 -0.0231079
0.199198 0.424789 -0.0242654
0.219476 0.424705 -0.0237577
0.239661 0.424645 -0.023425
0.189006 0.429864 -0.0248801
0.20934 0.429778 -0.0242954
0.229577 0.42969 -0.0238874
0.249758 0.429768 -0.0237805
0.199179 0.43484 -0.0248606
0.219473 0.434749 -0.0243581
0.239663 0.434688 -0.0240279
0.188984 0.439964 -0.0254133
0.209339 0.439832 -0.0248685
0.229585 0.439773 -0.0244387
0.24977 0.439856 -0.024301
0.158911 0.44496 -0.0242064
0.17918 0.444904 -0.0243316
0.138637 0.444979 -0.0237381
0.169041 0.449984 -0.0245668
0.148763 0.449996 -0.0242872
0.128485 0.450002 -0.0235909
0.179174 0.455009 -0.0248806
0.158899 0.455014 -0.0247539
0.138611 0.455019 -0.0242747
0.169037 0.460102 -0.0251256
0.148748 0.460093 -0.0248133
0.128485 0.460081 -0.0240563
0.179179 0.465156 -0.0254655
0.158895 0.465136 -0.0253027
0.138596 0.465122 -0.0247903
0.169039 0.470268 -0.025723
0.148741 0.470242 -0.0253657
0.128465 0.470205 -0.0245785
0.158887 0.47538 -0.0259054
0.179183 0.475337 -0.0261076
0.138583 0.475278 -0.0253384
0.169034 0.480476 -0.0263859
0.148728 0.48044 -0.0259776
0.128417 0.480389 -0.0251617
0.15888 0.485496 -0.0265386
0.179186 0.485433 -0.0267458
0.138563 0.485559 -0.0259385
0.148711 0.490543 -0.0266052
0.169034 0.490477 -0.0269874
0.128392 0.490633 -0.0257785
0.179193 0.495463 -0.0272907
0.158884 0.495552 -0.0271052
0.138558 0.495623 -0.0265168
0.148727 0.500608 -0.0271558
0.169058 0.500551 -0.0275082
0.128396 0.500696 -0.0263531
0.199164 0.444943 -0.0254301
0.219475 0.444843 -0.024913
0.23967 0.444789 -0.0245768
0.188947 0.450038 -0.0260664
0.209331 0.44994 -0.0254399
0.229591 0.449889 -0.0249922
0.24978 0.449991 -0.0247876
0.199148 0.455096 -0.0260321
0.219479 0.454978 -0.0254875
0.239681 0.45493 -0.0251407
0.188918 0.460227 -0.0267038
0.209329 0.460111 -0.0260475
0.229601 0.460062 -0.0255914
0.249793 0.460189 -0.0252978
0.199136 0.465321 -0.0266932
0.219487 0.465179 -0.0261178
0.239695 0.465129 -0.025767
0.188893 0.470494 -0.0274068
0.209327 0.470436 -0.0267475
0.229614 0.470293 -0.0262591
0.249808 0.470468 -0.0258631
0.199125 0.475485 -0.0273891
0.219494 0.47544 -0.026826
0.239708 0.47538 -0.0264772
0.188869 0.48054 -0.0280853
0.209328 0.48049 -0.0274091
0.229624 0.480418 -0.0269397
0.249807 0.480666 -0.026535
0.199119 0.48555 -0.0280533
0.219504 0.485461 -0.0274541
0.239722 0.48538 -0.0270809
0.188853 0.490617 -0.0287599
0.209336 0.490545 -0.028046
0.229642 0.490449 -0.0275452
0.249806 0.490673 -0.027116
0.199129 0.495597 -0.0286545
0.219531 0.495501 -0.0280133
0.239753 0.495417 -0.027603
0.188864 0.500633 -0.0293341
0.209368 0.500566 -0.0285896
0.229685 0.500476 -0.0280437
0.249824 0.500735 -0.0276616
0.118588 0.505464 -0.0248438
0.0986439 0.50536 -0.0224525
0.108594 0.510494 -0.024003
0.0887278 0.510405 -0.0211949
0.118588 0.515527 -0.0253606
0.0986317 0.515491 -0.0229396
0.108582 0.520589 -0.0245651
0.0887277 0.52047 -0.0216535
0.118594 0.525587 -0.0259376
0.0986171 0.525668 -0.0235638
0.0788413 0.525585 -0.0201745
0.108568 0.53063 -0.0251903
0.088716 0.530579 -0.0222473
0.118584 0.535652 -0.0266118
0.0985871 0.535711 -0.0242544
0.0788098 0.535608 -0.0208241
0.108546 0.540703 -0.0259221
0.088642 0.54077 -0.0230699
0.118559 0.545748 -0.0274103
0.0985238 0.545748 -0.0250362
0.0787429 0.545687 -0.0216049
0.108479 0.55078 -0.0267704
0.0885551 0.550795 -0.0239227
0.118478 0.555853 -0.0283455
0.0984435 0.555813 -0.0259617
0.0786295 0.555866 -0.0225908
0.108401 0.560911 -0.0276605
0.088469 0.560857 -0.0247817
0.0687403 0.560746 -0.0209124
0.118407 0.566043 -0.0292272
0.0983542 0.565964 -0.0267944
0.0785326 0.565898 -0.0233993
0.0689102 0.550806 -0.0200754
0.0788794 0.515539 -0.019684
0.0590372 0.596025 -0.0199904
0.058853 0.606093 -0.0207897
0.0586901 0.616124 -0.0215106
0.0584923 0.626337 -0.02234
0.0590786 0.586059 -0.0197036
0.108304 0.571088 -0.0285789
0.0883635 0.570991 -0.0256297
0.0686524 0.570967 -0.0217636
0.118313 0.576257 -0.0301768
0.0982396 0.576109 -0.0276847
0.0784268 0.575979 -0.024207
0.10821 0.581309 -0.0294709
0.0882499 0.581109 -0.0264575
0.0685628 0.580967 -0.0224439
0.118234 0.586525 -0.0310642
0.0981543 0.586304 -0.0285053
0.0783371 0.586083 -0.0249394
0.10814 0.591561 -0.0302455
0.0881709 0.591254 -0.0271566
0.0685099 0.591035 -0.0229935
0.118158 0.596847 -0.0318963
0.0980841 0.596529 -0.0291882
0.078256 0.596193 -0.0255156
0.108041 0.601863 -0.0311432
0.0880728 0.601495 -0.0279105
0.0684094 0.601155 -0.0236431
0.118038 0.607036 -0.0329382
0.0979697 0.606843 -0.0300998
0.0781305 0.606419 -0.026316
0.107921 0.612044 -0.0321008
0.0879717 0.611802 -0.0286994
[...]
POINT_DATA 7474
VECTORS alpha float
5.1498e-06 -2.18438e-08 1.81681e-07
-1.35941e-08 1.61301e-05 -1.11462e-06
4.90628e-06 -2.09166e-08 1.81739e-07
-1.28758e-08 1.62439e-05 -1.11867e-06
5.38872e-06 -2.26794e-08 1.31504e-07
8.79312e-09 1.51209e-05 -1.04013e-06
1.09538e-08 1.19337e-05 -8.57975e-07
1.02866e-08 7.70178e-06 -5.50624e-07
8.34247e-09 6.66379e-06 -4.75649e-07
3.9035e-09 4.8838e-06 -3.47699e-07
2.00228e-09 4.05355e-06 -2.88533e-07
1.49207e-09 2.42167e-06 -1.72621e-07
5.12292e-10 1.61189e-06 -1.14648e-07
1.40332e-11 8.05045e-07 -5.72479e-08
-5.01224e-14 1.76641e-10 -1.25838e-11
5.60522e-06 -2.24013e-08 6.66962e-08
5.79248e-06 -2.52435e-08 4.04232e-08
2.68088e-08 1.35997e-05 -9.28846e-07
1.45407e-08 1.03217e-05 -7.39826e-07
1.5893e-08 8.90453e-06 -6.34391e-07
6.30325e-06 -1.33422e-08 3.22535e-08
7.01278e-09 5.7373e-06 -4.12002e-07
6.56519e-06 -1.09645e-08 3.22131e-08
6.25595e-10 3.23383e-06 -2.31891e-07
6.73404e-06 -2.15867e-09 2.1465e-08
6.7805e-06 1.58685e-09 -1.32368e-08
-1.93663e-08 1.53119e-05 -1.06369e-06
8.02685e-09 1.62285e-05 -1.13588e-06
5.12326e-06 -2.16619e-08 1.30525e-07
9.51094e-09 1.5225e-05 -1.04279e-06
1.17843e-08 1.20089e-05 -8.59658e-07
5.92911e-06 -2.1099e-08 4.4013e-08
6.06284e-06 -1.95621e-08 1.16823e-08
6.17726e-06 -1.77354e-08 -1.86128e-08
1.07843e-08 7.75029e-06 -5.5147e-07
8.78807e-09 6.70698e-06 -4.76658e-07
6.39193e-06 -1.26817e-08 1.09281e-08
6.47136e-06 -1.12944e-08 -1.02561e-08
4.02477e-09 4.91778e-06 -3.47736e-07
2.06791e-09 4.0833e-06 -2.88776e-07
6.63153e-06 -9.73396e-09 1.5899e-08
6.68827e-06 -8.02269e-09 1.37738e-10
1.50314e-09 2.44135e-06 -1.73099e-07
5.06108e-10 1.62542e-06 -1.1508e-07
4.56893e-12 8.11928e-07 -5.75171e-08
6.76348e-06 -6.93115e-10 2.33948e-09
5.14928e-06 2.18727e-08 -1.81624e-07
-1.35563e-08 -1.613e-05 1.11462e-06
1.32724e-11 -8.04707e-07 5.72379e-08
5.10618e-10 -1.61159e-06 1.14662e-07
1.48935e-09 -2.42142e-06 1.72668e-07
2.00212e-09 -4.05338e-06 2.88634e-07
3.90486e-09 -4.88368e-06 3.47833e-07
8.33256e-09 -6.66359e-06 4.75756e-07
1.02772e-08 -7.70156e-06 5.50736e-07
1.09494e-08 -1.19335e-05 8.58071e-07
4.89707e-06 2.08683e-08 -1.81427e-07
-1.2854e-08 -1.62439e-05 1.11892e-06
5.38818e-06 2.27072e-08 -1.31463e-07
8.83321e-09 -1.51208e-05 1.04011e-06
6.78046e-06 -1.6303e-09 1.32777e-08
6.73378e-06 2.10968e-09 -2.14656e-08
6.56476e-06 1.09041e-08 -3.22842e-08
6.243e-10 -3.23362e-06 2.31961e-07
6.30274e-06 1.33425e-08 -3.2272e-08
7.00285e-09 -5.7371e-06 4.12104e-07
1.58884e-08 -8.90438e-06 6.34423e-07
1.45365e-08 -1.03215e-05 7.39886e-07
5.79192e-06 2.52643e-08 -4.04311e-08
5.60466e-06 2.24281e-08 -6.66752e-08
2.68475e-08 -1.35996e-05 9.28823e-07
4.44947e-14 1.47687e-10 -1.04907e-11
3.88444e-12 -8.11641e-07 5.75039e-08
5.04734e-10 -1.62516e-06 1.15077e-07
1.50118e-09 -2.44113e-06 1.73111e-07
6.76332e-06 6.46966e-10 -2.3194e-09
2.07089e-09 -4.08314e-06 2.88791e-07
4.03122e-09 -4.91766e-06 3.47746e-07
6.68793e-06 7.97488e-09 -1.14154e-10
6.63114e-06 9.6798e-09 -1.59233e-08
8.78323e-09 -6.70687e-06 4.76679e-07
1.07807e-08 -7.75017e-06 5.51496e-07
6.47089e-06 1.13129e-08 1.02872e-08
6.39144e-06 1.26911e-08 -1.09216e-08
1.17854e-08 -1.20088e-05 8.59708e-07
6.17674e-06 1.77743e-08 1.8637e-08
6.0623e-06 1.95953e-08 -1.16672e-08
5.92856e-06 2.11264e-08 -4.40084e-08
5.11468e-06 2.16142e-08 -1.30346e-07
9.54272e-09 -1.5225e-05 1.04299e-06
8.08442e-09 -1.62286e-05 1.13564e-06
-1.93064e-08 -1.5312e-05 1.06345e-06
4.13545e-08 1.10451e-05 -5.99884e-07
4.67532e-06 -1.91689e-08 -5.25264e-07
3.59323e-08 1.09939e-05 -6.03695e-07
4.3621e-06 -2.55302e-08 -4.78886e-07
3.25615e-08 1.09873e-05 -6.13919e-07
4.24788e-06 -2.39244e-08 -4.59472e-07
2.41774e-08 1.19e-05 -5.75097e-07
2.39918e-08 1.10066e-05 -6.26071e-07
1.88321e-08 1.10706e-05 -6.40371e-07
4.11893e-06 -2.21492e-08 -4.37804e-07
1.62136e-08 1.18593e-05 -5.95304e-07
1.24818e-08 1.11695e-05 -6.58796e-07
4.19586e-06 -2.18464e-08 -4.37212e-07
4.71303e-06 -2.45426e-08 -7.41431e-07
8.33726e-09 1.18534e-05 -6.16365e-07
5.50588e-10 1.12908e-05 -6.7951e-07
4.31755e-06 -2.33126e-08 -4.39062e-07
4.37368e-06 -2.89178e-08 -6.77596e-07
8.98667e-11 1.18652e-05 -6.35193e-07
-8.14728e-09 1.14322e-05 -6.9644e-07
4.40364e-06 -2.40603e-08 -4.3587e-07
-5.46945e-09 1.19134e-05 -6.47217e-07
4.20561e-06 -2.54027e-08 -6.40802e-07
-2.09452e-08 1.15837e-05 -7.06967e-07
4.48128e-06 -2.59195e-08 -4.30375e-07
5.06571e-06 -2.36848e-08 -1.30504e-08
4.77054e-06 -2.23966e-08 -8.98761e-08
1.83038e-08 1.60938e-05 -1.12095e-06
-7.36619e-09 1.51712e-05 -1.05466e-06
5.26722e-06 -2.24736e-08 -1.1737e-08
4.94331e-06 -2.08686e-08 -9.30005e-08
-1.42265e-09 1.50223e-05 -1.03754e-06
2.50128e-08 1.59412e-05 -1.117e-06
5.43834e-06 -2.14435e-08 -1.19212e-08
5.08662e-06 -1.94796e-08 -9.72113e-08
4.02281e-09 1.48558e-05 -1.02914e-06
2.9255e-08 1.57734e-05 -1.1117e-06
-1.65298e-08 1.31883e-05 -8.96754e-07
5.56982e-06 -2.08183e-08 -1.29765e-08
5.19355e-06 -1.84283e-08 -1.01433e-07
7.61247e-09 1.46779e-05 -1.01156e-06
3.08859e-08 1.55919e-05 -1.09516e-06
-1.14309e-08 1.30208e-05 -8.78263e-07
5.22048e-06 -1.66394e-08 -1.07399e-07
5.61192e-06 -2.05781e-08 -1.54996e-08
9.7279e-09 1.44932e-05 -9.90599e-07
3.07547e-08 1.53998e-05 -1.07376e-06
-7.50837e-09 1.28507e-05 -8.58261e-07
5.19334e-06 -1.65323e-08 -1.12073e-07
5.58847e-06 -2.10587e-08 -1.95469e-08
1.02896e-08 1.43156e-05 -9.72402e-07
2.89801e-08 1.52093e-05 -1.05387e-06
-4.89185e-09 1.26923e-05 -8.40804e-07
5.42987e-06 -1.68374e-08 -2.77855e-08
5.05352e-06 -1.34582e-08 -1.1651e-07
4.72293e-06 -1.00182e-08 -2.19471e-07
4.83514e-06 -1.39974e-08 -2.13194e-07
4.85668e-06 -1.4679e-08 -2.07771e-07
4.83488e-06 -1.58225e-08 -2.0171e-07
-2.1398e-08 1.33432e-05 -9.17477e-07
4.74349e-06 -1.72027e-08 -1.97576e-07
-2.90297e-08 1.34911e-05 -9.29976e-07
4.62295e-06 -1.89176e-08 -1.89658e-07
5.36212e-06 -2.05898e-08 1.86022e-07
5.62258e-06 -2.1638e-08 1.37188e-07
5.85834e-06 -2.14158e-08 7.2557e-08
6.06087e-06 -2.37833e-08 5.10451e-08
-8.28495e-09 1.60066e-05 -1.10904e-06
1.33562e-08 1.50073e-05 -1.03774e-06
2.89946e-08 1.3503e-05 -9.26366e-07
5.60104e-06 -1.89201e-08 1.99395e-07
5.89029e-06 -2.02732e-08 1.50664e-07
6.15306e-06 -2.02401e-08 8.51466e-08
6.37826e-06 -2.20194e-08 6.84378e-08
-4.00953e-09 1.58674e-05 -1.10209e-06
1.61657e-08 1.48788e-05 -1.03508e-06
3.07759e-08 1.33884e-05 -9.28357e-07
5.81108e-06 -1.81672e-08 2.14824e-07
6.13135e-06 -1.90092e-08 1.6066e-07
6.4254e-06 -1.93257e-08 9.66679e-08
6.6782e-06 -2.03647e-08 8.64769e-08
1.45345e-10 1.57065e-05 -1.09748e-06
1.81344e-08 1.47327e-05 -1.03314e-06
3.16157e-08 1.32572e-05 -9.31032e-07
5.97982e-06 -1.71259e-08 2.19531e-07
6.33212e-06 -1.82995e-08 1.6843e-07
6.65955e-06 -1.90619e-08 1.06543e-07
6.94229e-06 -1.77305e-08 1.05229e-07
3.13975e-09 1.55315e-05 -1.08466e-06
1.93162e-08 1.4568e-05 -1.02554e-06
3.12854e-08 1.31078e-05 -9.28703e-07
6.05159e-06 -1.64137e-08 2.19241e-07
6.43135e-06 -1.81741e-08 1.7122e-07
6.79033e-06 -1.95391e-08 1.12004e-07
7.10489e-06 -1.52901e-08 1.18148e-07
6.01408e-09 1.53405e-05 -1.06976e-06
2.02553e-08 1.43849e-05 -1.0147e-06
3.05739e-08 1.29391e-05 -9.23342e-07
6.04827e-06 -1.6536e-08 2.14942e-07
6.4484e-06 -1.88798e-08 1.70161e-07
6.83416e-06 -2.09868e-08 1.13689e-07
7.17822e-06 -1.31737e-08 1.28533e-07
8.03495e-09 1.51525e-05 -1.06506e-06
2.0465e-08 1.42e-05 -1.01137e-06
2.92201e-08 1.27645e-05 -9.23862e-07
5.88917e-06 -1.54304e-08 2.01217e-07
6.29423e-06 -1.85238e-08 1.66834e-07
6.69313e-06 -1.91844e-08 1.08955e-07
7.05779e-06 -9.47069e-09 1.32218e-07
1.66331e-08 1.41523e-05 -9.61254e-07
3.4033e-08 1.50256e-05 -1.03948e-06
2.25315e-09 1.25545e-05 -8.30509e-07
5.21291e-06 -1.23802e-08 -3.14571e-08
4.87361e-06 -8.98994e-09 -1.17577e-07
4.58869e-06 -5.46657e-09 -2.19258e-07
4.42458e-08 1.48529e-05 -1.02486e-06
2.88251e-08 1.40023e-05 -9.50141e-07
1.35536e-08 1.24355e-05 -8.25485e-07
4.88535e-06 -9.59541e-09 -3.50571e-08
4.61027e-06 -6.15841e-09 -1.16702e-07
4.39426e-06 -2.97347e-09 -2.18098e-07
5.13156e-08 1.47073e-05 -1.00886e-06
3.74733e-08 1.38886e-05 -9.37109e-07
2.27846e-08 1.23552e-05 -8.16298e-07
4.55175e-06 -8.59904e-09 -3.89961e-08
4.3631e-06 -5.12815e-09 -1.16738e-07
4.2357e-06 -2.08141e-09 -2.16197e-07
4.04208e-08 1.38198e-05 -9.32069e-07
5.48515e-08 1.45983e-05 -9.87212e-07
3.02963e-08 1.23175e-05 -8.0386e-07
4.46901e-06 -1.06927e-08 -4.52518e-08
4.36269e-06 -7.12167e-09 -1.23652e-07
4.31134e-06 -3.12808e-09 -2.25255e-07
4.61961e-08 1.37773e-05 -8.87501e-07
5.86426e-08 1.45229e-05 -9.26113e-07
3.31167e-08 1.23137e-05 -8.00204e-07
4.30093e-06 -1.205e-08 -1.23042e-07
4.29679e-06 -1.61955e-08 -3.86063e-08
4.34879e-06 -7.21477e-09 -2.34833e-07
6.08168e-08 1.45082e-05 -8.40858e-07
5.14047e-08 1.37939e-05 -8.28864e-07
3.93903e-08 1.23545e-05 -7.57853e-07
4.46843e-06 -1.03777e-08 -1.22021e-07
4.35156e-06 -1.45504e-08 -3.20567e-08
4.60703e-06 -5.80706e-09 -2.44746e-07
1.21428e-08 1.49744e-05 -1.06803e-06
2.2715e-08 1.40175e-05 -1.01198e-06
2.95587e-08 1.25857e-05 -9.26257e-07
5.65288e-06 -1.39361e-08 2.08188e-07
6.0426e-06 -1.55993e-08 1.66047e-07
6.43917e-06 -1.5694e-08 1.09777e-07
6.81276e-06 -4.78985e-09 1.35233e-07
1.82823e-08 1.48004e-05 -1.06921e-06
2.69781e-08 1.38316e-05 -1.00626e-06
3.15705e-08 1.23976e-05 -9.19585e-07
5.27514e-06 -1.32733e-08 1.97597e-07
5.62505e-06 -1.43927e-08 1.57388e-07
5.99663e-06 -1.4028e-08 1.04043e-07
6.36194e-06 -2.87994e-09 1.28604e-07
2.33156e-08 1.46394e-05 -1.07261e-06
3.03034e-08 1.36524e-05 -1.00066e-06
3.25865e-08 1.22097e-05 -9.12265e-07
4.86432e-06 -1.44879e-08 1.84294e-07
5.14721e-06 -1.4078e-08 1.39368e-07
5.46855e-06 -1.42067e-08 9.52639e-08
5.80135e-06 -3.19442e-09 1.16146e-07
3.0472e-08 1.44942e-05 -1.03663e-06
3.2485e-08 1.34913e-05 -9.92477e-07
3.23497e-08 1.20331e-05 -9.01514e-07
4.70087e-06 -1.80796e-08 1.83019e-07
4.90318e-06 -1.8324e-08 1.4059e-07
5.15323e-06 -1.72842e-08 9.23541e-08
5.43371e-06 -7.63405e-09 1.08005e-07
4.12075e-08 1.43748e-05 -9.52067e-07
3.88778e-08 1.33464e-05 -8.99999e-07
3.48772e-08 1.18731e-05 -8.13271e-07
4.4148e-06 -2.24154e-08 1.81317e-07
4.50564e-06 -2.23659e-08 1.36863e-07
4.65616e-06 -2.1109e-08 8.98535e-08
4.8524e-06 -1.16545e-08 9.83007e-08
5.08072e-08 1.43363e-05 -8.59029e-07
4.47654e-08 1.32742e-05 -8.10883e-07
3.73105e-08 1.17722e-05 -7.31769e-07
4.34758e-06 -2.15043e-08 1.84601e-07
4.30682e-06 -2.0514e-08 1.39189e-07
4.3325e-06 -1.83084e-08 9.43267e-08
4.42197e-06 -1.10966e-08 8.71165e-08
5.52395e-08 1.11261e-05 -6.13081e-07
4.13228e-08 1.19612e-05 -5.69941e-07
5.24162e-06 -1.27882e-08 -5.99326e-07
5.25871e-06 -1.82637e-08 -8.36358e-07
7.10893e-08 1.12153e-05 -6.3002e-07
6.03355e-08 1.2009e-05 -6.04456e-07
6.141e-06 -8.71113e-09 -7.1212e-07
6.0714e-06 -1.1283e-08 -9.77387e-07
7.88394e-08 1.12886e-05 -6.66914e-07
6.55714e-08 1.20159e-05 -6.81327e-07
9.09314e-08 1.76187e-05 -8.82751e-07
7.39068e-06 -5.5409e-09 -8.62227e-07
7.15224e-06 -5.03198e-10 -1.16805e-06
7.9231e-08 1.13106e-05 -7.24332e-07
6.10798e-08 1.19418e-05 -7.51516e-07
7.24928e-08 1.74258e-05 -9.91995e-07
9.01952e-06 -4.23573e-10 -1.06004e-06
8.51244e-06 1.24667e-08 -1.42709e-06
6.49848e-08 1.12256e-05 -7.866e-07
4.97663e-08 1.1745e-05 -8.18245e-07
4.27117e-08 1.71058e-05 -1.13131e-06
1.09699e-05 1.50633e-08 -1.2994e-06
1.00926e-05 1.76812e-08 -1.71528e-06
4.12867e-08 1.0981e-05 -8.69593e-07
2.50901e-08 1.13731e-05 -8.99096e-07
-4.16331e-10 1.65943e-05 -1.31048e-06
1.3168e-05 4.06039e-08 -1.57061e-06
1.18252e-05 4.44078e-08 -2.02954e-06
1.02693e-05 2.01973e-08 -2.27822e-06
1.26343e-08 1.05161e-05 -9.24602e-07
3.66337e-09 1.07898e-05 -9.46641e-07
-2.97963e-08 1.5889e-05 -1.35594e-06
8.98035e-06 -2.17783e-08 -1.97641e-06
8.72767e-08 1.77045e-05 -8.11869e-07
-1.52999e-08 2.60712e-05 -1.66085e-06
-4.32726e-10 2.46253e-05 -1.69358e-06
1.17397e-08 2.32756e-05 -1.64738e-06
2.10899e-08 2.21826e-05 -1.43379e-06
-8.4314e-08 2.74488e-05 -1.82335e-06
1.54147e-05 7.83687e-08 -1.863e-06
1.35422e-05 9.66529e-08 -2.35712e-06
1.1502e-05 8.29919e-08 -2.61707e-06
-4.2185e-09 9.77749e-06 -9.15338e-07
-1.06593e-08 9.92925e-06 -9.29613e-07
-4.38594e-08 1.49441e-05 -1.35899e-06
1.74171e-05 1.22063e-07 -2.17054e-06
1.49799e-05 1.34327e-07 -2.64278e-06
1.24509e-05 1.18659e-07 -2.87536e-06
-1.26333e-08 8.73848e-06 -8.26714e-07
-1.94782e-08 8.79089e-06 -8.34035e-07
-4.52773e-08 1.37549e-05 -1.26934e-06
1.8824e-05 1.67528e-07 -2.45744e-06
1.5848e-05 1.81162e-07 -2.87512e-06
1.28987e-05 1.67786e-07 -3.05273e-06
-9.05367e-09 7.37881e-06 -6.69905e-07
-1.43681e-08 7.37601e-06 -6.67644e-07
-2.81698e-08 1.23356e-05 -1.08145e-06
1.92268e-05 1.9562e-07 -2.66025e-06
1.58136e-05 2.21715e-07 -2.98504e-06
1.25952e-05 1.98784e-07 -3.04962e-06
-1.52402e-08 5.74298e-06 -5.29909e-07
-1.62612e-08 5.75281e-06 -5.09206e-07
-3.10432e-08 1.0799e-05 -9.15004e-07
1.82461e-05 2.04948e-07 -2.63372e-06
1.45675e-05 2.34134e-07 -2.87824e-06
1.12976e-05 2.11382e-07 -2.82444e-06
-1.49377e-08 3.98571e-06 -3.35276e-07
-2.47356e-08 9.22043e-06 -6.94015e-07
-1.42724e-08 3.87633e-06 -3.50341e-07
1.15925e-05 2.07831e-07 -2.40746e-06
8.62785e-06 1.88827e-07 -2.24325e-06
1.51892e-05 1.93456e-07 -2.36429e-06
-2.04364e-08 7.76785e-06 -5.02843e-07
-7.96761e-09 1.91436e-06 -1.55962e-07
-8.21789e-09 2.23568e-06 -1.66131e-07
7.16865e-08 1.45565e-05 -7.7077e-07
6.45358e-08 1.38687e-05 -7.60449e-07
5.36168e-08 1.24432e-05 -6.95956e-07
4.96372e-06 -8.54771e-09 -1.26752e-07
4.7547e-06 -1.33022e-08 -2.31094e-08
5.16131e-06 -3.11697e-09 -2.6965e-07
8.72536e-08 1.46593e-05 -7.40019e-07
8.12167e-08 1.39861e-05 -7.35568e-07
7.01594e-08 1.25592e-05 -6.77704e-07
5.64514e-06 -1.28513e-08 -2.03787e-08
5.90701e-06 -7.8599e-09 -1.48469e-07
6.1124e-06 -1.30647e-09 -3.23668e-07
9.35883e-08 1.48053e-05 -7.74972e-07
7.53968e-08 1.26769e-05 -7.18663e-07
8.75853e-08 1.41292e-05 -7.7757e-07
7.11047e-06 -1.61677e-08 -1.75303e-08
7.35998e-06 -9.72298e-09 -1.85745e-07
7.49806e-06 -1.51028e-09 -4.09342e-07
7.99715e-08 1.42651e-05 -8.71522e-07
8.2945e-08 1.49709e-05 -8.77519e-07
7.16748e-08 1.27621e-05 -8.1047e-07
9.3967e-06 -1.15669e-08 -2.51228e-07
9.25199e-06 -2.25483e-08 -2.15668e-08
9.3668e-06 -1.90147e-09 -5.44813e-07
5.57349e-08 1.43595e-05 -1.04837e-06
5.39115e-08 1.51278e-05 -1.06798e-06
5.212e-08 1.27701e-05 -9.6616e-07
1.19837e-05 -1.00957e-08 -3.61373e-07
1.2057e-05 -2.5244e-08 -4.72321e-08
1.16689e-05 2.05453e-09 -7.43782e-07
1.43293e-08 1.43513e-05 -1.32323e-06
7.25157e-09 1.52164e-05 -1.37885e-06
1.64759e-08 1.26428e-05 -1.19484e-06
1.5057e-05 8.09302e-09 -4.78604e-07
1.54694e-05 -1.41258e-08 -8.86711e-08
1.43377e-05 2.37162e-08 -9.41314e-07
-9.84533e-09 1.23267e-05 -1.31838e-06
-2.01836e-08 1.41779e-05 -1.50332e-06
-3.28979e-08 1.51743e-05 -1.58831e-06
6.40373e-08 1.4373e-05 -7.38494e-07
5.38911e-08 1.32727e-05 -6.99457e-07
4.33812e-08 1.17327e-05 -6.39102e-07
4.64354e-06 -2.15937e-08 2.01254e-07
4.46839e-06 -1.94736e-08 1.53312e-07
4.35871e-06 -1.6954e-08 1.08318e-07
4.3313e-06 -1.23194e-08 8.46346e-08
7.66587e-08 1.44729e-05 -6.72617e-07
6.38312e-08 1.33349e-05 -6.43706e-07
4.91537e-08 1.17554e-05 -5.87765e-07
5.46492e-06 -2.73072e-08 2.47528e-07
5.1646e-06 -2.1839e-08 1.87156e-07
4.91854e-06 -1.74726e-08 1.35942e-07
4.76488e-06 -1.62887e-08 8.99738e-08
8.24536e-08 1.46244e-05 -6.92124e-07
6.77495e-08 1.34567e-05 -6.58102e-07
5.0931e-08 1.18396e-05 -6.00585e-07
6.92404e-06 -3.55649e-08 3.12641e-07
6.53309e-06 -2.89694e-08 2.47683e-07
6.17098e-06 -2.13211e-08 1.87812e-07
5.90173e-06 -2.29859e-08 1.08086e-07
7.90612e-08 1.48095e-05 -8.13153e-07
6.23998e-08 1.36287e-05 -7.62847e-07
4.55203e-08 1.19782e-05 -6.97564e-07
9.15042e-06 -5.48866e-08 4.01257e-07
8.72756e-06 -4.42068e-08 3.39182e-07
8.29232e-06 -2.86774e-08 2.75318e-07
7.92686e-06 -3.36526e-08 1.49352e-07
6.07101e-08 1.50007e-05 -1.06546e-06
4.57533e-08 1.38212e-05 -9.93385e-07
2.91271e-08 1.21593e-05 -8.92859e-07
1.21599e-05 -8.28635e-08 4.96517e-07
1.17903e-05 -6.7211e-08 4.53055e-07
1.13516e-05 -4.30771e-08 4.00087e-07
1.09328e-05 -5.49375e-08 2.46324e-07
2.32265e-08 1.51605e-05 -1.49289e-06
1.03936e-08 1.40216e-05 -1.38604e-06
-1.70355e-09 1.2355e-05 -1.24885e-06
1.5918e-05 -1.07682e-07 6.608e-07
1.56976e-05 -8.01277e-08 6.02095e-07
1.53381e-05 -4.9905e-08 5.39145e-07
1.49631e-05 -7.6794e-08 3.93361e-07
-4.1109e-09 1.52379e-05 -1.75967e-06
-1.49379e-08 1.41628e-05 -1.6418e-06
-2.43664e-08 1.25334e-05 -1.47099e-06
1.71523e-05 8.42553e-08 -1.07464e-06
1.83782e-05 5.46021e-08 -5.60619e-07
1.92406e-05 2.27346e-08 -1.28592e-07
-5.86136e-08 1.4951e-05 -1.71233e-06
-2.34645e-08 1.17532e-05 -1.36131e-06
-4.11069e-08 1.37758e-05 -1.59987e-06
2.30698e-05 9.5931e-08 -2.5728e-07
1.97973e-05 1.59175e-07 -1.24347e-06
2.16366e-05 1.2256e-07 -6.94118e-07
-2.5383e-08 1.08766e-05 -1.2875e-06
-5.08716e-08 1.30865e-05 -1.58036e-06
-6.92732e-08 1.44589e-05 -1.72533e-06
2.18602e-05 2.26442e-07 -1.40474e-06
2.64746e-05 1.6014e-07 -4.24308e-07
2.43683e-05 2.12646e-07 -8.74016e-07
-8.19673e-08 1.36403e-05 -1.63904e-06
-1.62104e-08 9.65496e-06 -1.07658e-06
-4.77704e-08 1.20568e-05 -1.41096e-06
2.60407e-05 2.36626e-07 -9.84264e-07
2.88473e-05 1.78567e-07 -5.49113e-07
2.2864e-05 2.8193e-07 -1.49897e-06
-8.66122e-08 1.24758e-05 -1.44422e-06
-4.52283e-08 1.06629e-05 -1.16308e-06
-1.03914e-08 8.0884e-06 -8.11028e-07
2.60986e-05 2.44952e-07 -1.08104e-06
2.95817e-05 1.87398e-07 -7.12655e-07
2.2331e-05 2.81793e-07 -1.50909e-06
-3.74607e-08 8.90368e-06 -8.34757e-07
-8.3901e-08 1.09266e-05 -1.14608e-06
-2.69856e-09 6.20097e-06 -5.00863e-07
2.35418e-05 2.35465e-07 -1.13744e-06
2.75467e-05 1.84176e-07 -8.28074e-07
1.94002e-05 2.58384e-07 -1.46346e-06
-3.01402e-08 6.87173e-06 -5.77068e-07
-7.50428e-08 9.06155e-06 -8.64795e-07
-8.33565e-10 4.11818e-06 -2.9202e-07
2.01753e-05 -9.41204e-08 9.42034e-07
2.02079e-05 -6.87344e-08 8.26152e-07
2.00198e-05 -3.86283e-08 7.00294e-07
1.97904e-05 -6.61843e-08 5.51446e-07
-2.92946e-08 1.51782e-05 -1.97467e-06
-3.94394e-08 1.42031e-05 -1.85006e-06
-4.65807e-08 1.26319e-05 -1.65325e-06
2.46524e-05 -4.9947e-08 1.2769e-06
2.50698e-05 -3.43672e-08 1.08662e-06
2.51763e-05 -1.26221e-08 8.77565e-07
2.51927e-05 -1.74002e-08 7.2853e-07
-6.10092e-08 1.40803e-05 -1.94505e-06
-6.63644e-08 1.26051e-05 -1.74013e-06
-4.81483e-08 1.49099e-05 -2.0441e-06
3.02695e-05 -1.83123e-08 1.0854e-06
2.88177e-05 -2.05509e-08 1.61959e-06
2.97458e-05 -1.79911e-08 1.36059e-06
3.06295e-05 9.51597e-09 8.99885e-07
-8.09173e-08 1.2351e-05 -1.69653e-06
-5.61335e-08 1.43034e-05 -1.91118e-06
-7.05282e-08 1.36674e-05 -1.84002e-06
3.19607e-05 -1.29973e-08 1.81561e-06
3.35031e-05 -3.86842e-08 1.54339e-06
3.4559e-05 -5.80529e-08 1.22458e-06
3.53517e-05 -6.07301e-08 1.08164e-06
-8.34723e-08 1.18273e-05 -1.46019e-06
-5.06871e-08 1.336e-05 -1.58766e-06
-7.07338e-08 1.29551e-05 -1.57877e-06
3.3434e-05 -3.16975e-08 1.89111e-06
3.56492e-05 -9.01422e-08 1.61059e-06
3.73088e-05 -1.4458e-07 1.26844e-06
3.87132e-05 -1.07832e-07 1.02813e-06
-8.23475e-08 1.09972e-05 -1.14314e-06
-3.9211e-08 1.20244e-05 -1.12927e-06
-6.47056e-08 1.18852e-05 -1.18651e-06
3.19588e-05 -5.25214e-08 1.63303e-06
3.48307e-05 -1.24552e-07 1.42876e-06
3.71158e-05 -1.96877e-07 1.15465e-06
3.90704e-05 -1.44714e-07 7.83869e-07
-3.53568e-08 1.03587e-05 -8.90697e-07
-6.22776e-08 1.04972e-05 -9.68525e-07
-8.21569e-08 9.87302e-06 -9.58521e-07
6.2156e-06 -2.00298e-08 5.04651e-08
6.35861e-06 -1.83241e-08 1.80032e-08
6.47868e-06 -1.63139e-08 -1.23431e-08
1.39014e-08 1.18537e-05 -8.53948e-07
1.64448e-08 1.02528e-05 -7.3782e-07
1.70218e-08 8.84527e-06 -6.33768e-07
6.56434e-06 -1.81477e-08 6.14411e-08
6.72298e-06 -1.70447e-08 2.96348e-08
6.85487e-06 -1.4789e-08 -1.05852e-09
1.67441e-08 1.17599e-05 -8.50765e-07
1.8275e-08 1.01725e-05 -7.36244e-07
1.81129e-08 8.77717e-06 -6.33402e-07
6.90188e-06 -1.71178e-08 7.38101e-08
7.08316e-06 -1.60589e-08 4.1639e-08
7.23266e-06 -1.37004e-08 1.05723e-08
1.94334e-08 1.16506e-05 -8.47977e-07
1.96287e-08 1.00791e-05 -7.35339e-07
1.8502e-08 8.69852e-06 -6.34134e-07
7.21071e-06 -1.65941e-08 8.52584e-08
7.42062e-06 -1.58704e-08 5.37869e-08
7.59393e-06 -1.37018e-08 2.33919e-08
2.16937e-08 1.15224e-05 -8.42221e-07
2.05245e-08 9.96896e-06 -7.31619e-07