# vtk DataFile Version 3.0
vtk output
ASCII
DATASET POLYDATA
POINTS 20099 float
0.117738 1.01054 -0.0507348
0.117979 1.00054 -0.0502416
0.182451 0.949913 -0.0538305
0.171704 0.94502 -0.053545
0.160875 0.950111 -0.0534876
0.182624 0.939929 -0.0531799
0.171903 0.935032 -0.0528991
0.161062 0.940127 -0.0528763
0.172045 0.925037 -0.0523039
0.161248 0.930131 -0.0522566
0.18277 0.929939 -0.0525801
0.150374 0.945226 -0.0522383
0.182943 0.919948 -0.0519192
0.172236 0.915049 -0.0516506
0.161455 0.920143 -0.0516006
0.150604 0.935234 -0.051679
0.18311 0.909956 -0.0512859
0.150784 0.925238 -0.0510858
0.139717 0.950329 -0.0512965
0.17242 0.905057 -0.0510334
0.161632 0.910152 -0.0509799
0.139957 0.940334 -0.0506987
0.172582 0.895064 -0.0504082
0.161812 0.900156 -0.0504403
0.183274 0.899963 -0.0506683
0.150936 0.915251 -0.0506145
0.193177 0.944818 -0.0536483
0.193325 0.934829 -0.0530299
0.203835 0.949709 -0.0538497
0.214576 0.94462 -0.053481
0.235591 0.944444 -0.0533318
0.225098 0.949521 -0.053697
0.245935 0.949353 -0.0536459
0.214689 0.934628 -0.0528825
0.225187 0.939534 -0.0530917
0.246007 0.939365 -0.0530192
0.203972 0.939727 -0.0532083
0.204087 0.929733 -0.052643
0.225267 0.929542 -0.0524986
0.235678 0.934457 -0.0526855
0.204207 0.919743 -0.0520295
0.193464 0.924838 -0.0524275
0.214786 0.924639 -0.0523013
0.235758 0.924464 -0.0520588
0.246079 0.929378 -0.0523864
0.193622 0.914849 -0.0517397
0.214875 0.914649 -0.0517215
0.225363 0.919557 -0.0518607
0.246164 0.919391 -0.0517385
0.204325 0.909752 -0.0514354
0.225443 0.909563 -0.0512497
0.23583 0.914479 -0.0514411
0.204446 0.899756 -0.0508495
0.193765 0.904859 -0.0511311
0.214984 0.904659 -0.0510957
0.235921 0.904487 -0.0508057
0.24625 0.909401 -0.0511088
0.193885 0.894866 -0.0505464
0.215083 0.894668 -0.0504862
0.225548 0.899574 -0.0506078
0.24634 0.899409 -0.0504699
0.171551 0.955012 -0.0541103
0.150184 0.955216 -0.0527961
0.127924 1.00543 -0.0530167
0.182294 0.959907 -0.0544548
0.160663 0.960106 -0.0540756
0.139446 0.960322 -0.0519122
0.128249 0.99543 -0.0523233
0.128491 0.985432 -0.0517644
0.171335 0.965001 -0.0547619
0.149983 0.965206 -0.053311
0.182107 0.969897 -0.0550744
0.160434 0.970096 -0.0546883
0.139215 0.970321 -0.0525237
0.171149 0.974995 -0.0553591
0.149763 0.975202 -0.0539064
0.181931 0.979887 -0.0557147
0.160244 0.980087 -0.0552571
0.139019 0.980316 -0.0530866
0.170956 0.98498 -0.0559729
0.149501 0.985194 -0.0545859
0.138808 0.990313 -0.0536784
0.181728 0.989878 -0.0563652
0.160024 0.990079 -0.055865
0.138288 1.01031 -0.0549474
0.138518 1.00032 -0.0543772
0.170755 0.994974 -0.0566038
0.149255 0.995195 -0.0552457
0.181544 0.999871 -0.0570281
0.15982 1.00007 -0.0564896
0.170536 1.00496 -0.0572776
0.148925 1.00519 -0.0560529
0.181341 1.00986 -0.0577174
0.15956 1.01006 -0.0571726
0.128701 0.975434 -0.0512196
0.128979 0.965438 -0.0505995
0.193058 0.95481 -0.0542087
0.21446 0.954609 -0.0540788
0.23551 0.954434 -0.0539609
0.203687 0.959702 -0.0544749
0.224987 0.959509 -0.0543113
0.245848 0.959341 -0.0542744
0.192884 0.9648 -0.0548512
0.214324 0.964598 -0.0546815
0.235411 0.96442 -0.0545825
0.203532 0.96969 -0.0551229
0.224887 0.969503 -0.0548648
0.245757 0.969334 -0.0548943
0.192736 0.974794 -0.0554666
0.192586 0.984779 -0.0560968
0.192434 0.994773 -0.0567419
0.192244 1.00476 -0.0574228
0.214205 0.974588 -0.0552518
0.235316 0.974407 -0.0551988
0.203397 0.97968 -0.0557507
0.224771 0.979486 -0.0554826
0.245672 0.979316 -0.0555438
0.214082 0.984577 -0.055852
0.235224 0.984395 -0.0558029
0.203255 0.989671 -0.0563897
0.245587 0.989308 -0.0561812
0.224667 0.989481 -0.0560796
0.21396 0.994569 -0.0564864
0.235128 0.994386 -0.0564241
0.203102 0.999658 -0.0570647
0.235005 1.00437 -0.0570692
0.224534 0.999467 -0.0567339
0.245495 0.999297 -0.0568135
0.202957 1.00965 -0.0577074
0.245395 1.00928 -0.0574619
0.213789 1.00455 -0.0571994
0.224411 1.00946 -0.0573649
0.213628 1.01454 -0.0578817
0.234885 1.01436 -0.057687
0.328233 0.888964 -0.0505114
0.348502 0.88888 -0.0506013
0.368734 0.888816 -0.0506921
0.378891 0.883795 -0.0504136
0.399133 0.88375 -0.050423
0.41931 0.883712 -0.0505109
0.38906 0.888766 -0.050704
0.409187 0.888723 -0.0507965
0.429386 0.888695 -0.0507557
0.439479 0.883689 -0.0503763
0.459643 0.883664 -0.0505306
0.479773 0.883661 -0.0503748
0.44957 0.888668 -0.0507931
0.469707 0.888656 -0.0507495
0.489828 0.888653 -0.0506903
0.256259 0.944268 -0.0533229
0.287148 0.949072 -0.0539879
0.307599 0.948974 -0.0540179
0.287198 0.939088 -0.0533697
0.307639 0.938989 -0.053402
0.276943 0.944141 -0.0535361
0.297398 0.944035 -0.0537308
0.266586 0.949192 -0.0536923
0.266654 0.939208 -0.0530952
0.277005 0.934156 -0.0528938
0.297441 0.934048 -0.053123
0.256317 0.934283 -0.052696
0.297502 0.924057 -0.0525173
0.266732 0.929221 -0.0524708
0.287271 0.929107 -0.0527471
0.307696 0.929007 -0.0527786
0.256418 0.924295 -0.0520725
0.287336 0.919123 -0.0521094
0.307756 0.919024 -0.0521107
0.277094 0.924174 -0.0522688
0.277161 0.91419 -0.051614
0.297576 0.914081 -0.0518359
0.266832 0.919244 -0.0518277
0.297632 0.904092 -0.0511837
0.266906 0.909254 -0.0511974
0.287405 0.909138 -0.0514829
0.307812 0.909038 -0.0514772
0.256531 0.914317 -0.0514237
0.287469 0.89915 -0.0508384
0.307867 0.89905 -0.050832
0.256615 0.904328 -0.0507835
0.277237 0.904208 -0.0509544
0.277302 0.894217 -0.0503465
0.297704 0.894108 -0.0505632
0.267008 0.899273 -0.05057
0.338339 0.893906 -0.0509462
0.358603 0.893832 -0.0509913
0.348464 0.898857 -0.0512392
0.368703 0.898793 -0.0513327
0.317814 0.94393 -0.0538227
0.317854 0.933941 -0.0532001
0.327938 0.948855 -0.0543441
0.348302 0.94877 -0.0544338
0.368585 0.948702 -0.0545605
0.368601 0.93872 -0.0539216
0.338142 0.943824 -0.0541108
0.358449 0.943747 -0.0541692
0.338176 0.933836 -0.053494
0.358476 0.933761 -0.0535449
0.327989 0.938878 -0.0537092
0.348332 0.938793 -0.0537952
0.328023 0.928892 -0.053078
0.348356 0.928808 -0.0531668
0.368625 0.928741 -0.0532719
0.368652 0.918754 -0.0526324
0.317894 0.923951 -0.0525795
0.338212 0.923857 -0.0528563
0.358504 0.923781 -0.0529077
0.338251 0.913874 -0.0522267
0.358533 0.913799 -0.0522733
0.32809 0.91891 -0.0524323
0.348401 0.918826 -0.0525184
0.328135 0.908927 -0.051798
0.348427 0.908842 -0.0518936
0.368674 0.908777 -0.0519913
0.317962 0.913975 -0.0519151
0.318008 0.903986 -0.0512842
0.338295 0.903892 -0.0515813
0.358563 0.903817 -0.0516288
0.328187 0.898946 -0.0511516
0.318065 0.894003 -0.0506692
0.256183 0.954257 -0.0539536
0.297316 0.954015 -0.0543647
0.276865 0.954126 -0.0541725
0.28704 0.959055 -0.054631
0.307519 0.958957 -0.0546629
0.266456 0.959173 -0.0543126
0.256106 0.964244 -0.0545942
0.276744 0.964108 -0.0548016
0.297241 0.964004 -0.0549914
0.286957 0.969044 -0.0552819
0.307449 0.968948 -0.0553045
0.26635 0.969162 -0.0549278
0.25583 1.00419 -0.0571363
0.255757 1.01419 -0.0577465
0.256027 0.974231 -0.055236
0.297154 0.973981 -0.0556347
0.276658 0.974092 -0.055431
0.255962 0.984219 -0.0558586
0.255891 0.99421 -0.0564994
0.286862 0.979021 -0.0559204
0.307375 0.978924 -0.0559594
0.266219 0.979137 -0.0555581
0.276543 0.984074 -0.0560081
0.297092 0.983972 -0.056243
0.28679 0.989008 -0.0565652
0.307312 0.988912 -0.0565977
0.266127 0.989124 -0.0561772
0.266081 0.999108 -0.0568099
0.286685 0.998986 -0.057197
0.307229 0.998892 -0.057231
0.297006 0.993953 -0.0568717
0.27646 0.994061 -0.0566321
0.276341 1.00404 -0.057244
0.296938 1.00394 -0.0575053
0.266023 1.0091 -0.0574189
0.286607 1.00898 -0.0578117
0.307166 1.00888 -0.0578308
0.296844 1.01392 -0.0581334
0.276257 1.01403 -0.0578474
0.31775 0.953912 -0.0544626
0.358418 0.953726 -0.0548237
0.338099 0.953809 -0.054741
0.368558 0.958684 -0.0552269
0.327879 0.958844 -0.0549763
0.348256 0.958758 -0.0550731
0.317692 0.963902 -0.055095
0.33804 0.963791 -0.0553888
0.358383 0.963714 -0.0554584
0.348209 0.968741 -0.0557146
0.368526 0.968673 -0.0558626
0.327827 0.968834 -0.0555966
0.317623 0.97388 -0.0557606
0.358347 0.973691 -0.0561347
0.33799 0.973774 -0.0560514
0.327768 0.97881 -0.0562718
0.348172 0.978723 -0.0563726
0.368495 0.978654 -0.0565302
0.317573 0.983871 -0.056386
0.317515 0.993852 -0.0570306
0.31746 1.00384 -0.0576781
0.317392 1.01382 -0.0583043
0.368471 0.988635 -0.0571964
0.35832 0.983676 -0.0567773
0.337941 0.983757 -0.0566918
0.348127 0.988704 -0.0570354
0.337901 0.993743 -0.0573433
0.358285 0.993665 -0.0574208
0.327719 0.988798 -0.0569308
0.327657 0.998779 -0.0576052
0.348089 0.998688 -0.0576871
0.368436 0.998619 -0.0578509
0.337839 1.00372 -0.0580135
0.358246 1.00364 -0.0580979
0.327612 1.00877 -0.0582255
0.348039 1.00867 -0.0583408
0.368402 1.0086 -0.0585069
0.337792 1.01371 -0.0586447
0.358212 1.01363 -0.0587345
0.378847 0.893775 -0.051057
0.39911 0.89373 -0.0510692
0.419291 0.893691 -0.051162
0.389014 0.898743 -0.0513324
0.409159 0.8987 -0.0514312
0.42937 0.898671 -0.0513967
0.37878 0.903756 -0.0516667
0.39907 0.903711 -0.0516843
0.419264 0.903673 -0.0517881
0.378636 0.943687 -0.0541945
0.378648 0.933701 -0.0535646
0.419195 0.943596 -0.0543492
0.388836 0.948649 -0.0545013
0.409056 0.948605 -0.054623
0.429306 0.948576 -0.0546134
0.388856 0.938667 -0.0538743
0.409064 0.938624 -0.0539918
0.429309 0.938594 -0.0539853
0.398968 0.943641 -0.0542281
0.398983 0.933656 -0.0535931
0.419209 0.933617 -0.0537145
0.419218 0.923632 -0.0530891
0.388901 0.928689 -0.0532369
0.409086 0.928646 -0.0533519
0.429317 0.928616 -0.0533427
0.388931 0.918703 -0.0525878
0.409105 0.91866 -0.0527017
0.42933 0.91863 -0.0526881
0.378683 0.923721 -0.0529409
0.399015 0.923676 -0.0529681
0.378725 0.91374 -0.0523054
0.399037 0.913696 -0.0523234
0.419239 0.913657 -0.052434
0.388979 0.908726 -0.0519721
0.409132 0.908683 -0.052077
0.429346 0.908654 -0.0520519
0.439462 0.893669 -0.0510324
0.459635 0.893644 -0.0511865
0.479771 0.89364 -0.0510307
0.449558 0.898644 -0.0514394
0.469707 0.898632 -0.0513943
0.489838 0.898629 -0.0513331
0.459626 0.903625 -0.0518235
0.439386 0.943577 -0.0542638
0.43939 0.933593 -0.0536216
0.459615 0.943547 -0.0544067
0.449512 0.948548 -0.0546644
0.469703 0.948536 -0.0546206
[...]
POINT_DATA 20099
VECTORS alpha float
1.07546e-06 -8.61994e-09 -1.20803e-07
1.05374e-06 -8.32924e-09 -1.14399e-07
1.11248e-06 -9.03215e-09 6.39557e-08
-2.83543e-07 1.99617e-05 -1.3175e-06
1.07763e-06 -9.13337e-09 4.80704e-08
1.08467e-06 -8.69257e-09 6.13904e-08
-2.95754e-07 1.9984e-05 -1.31871e-06
1.05063e-06 -8.80577e-09 4.78117e-08
-2.87605e-07 2.00052e-05 -1.32161e-06
1.02741e-06 -8.49448e-09 4.65865e-08
1.06185e-06 -8.42148e-09 6.02068e-08
-3.6064e-07 1.89713e-05 -1.19903e-06
1.04267e-06 -8.15922e-09 5.84766e-08
-2.88452e-07 2.00259e-05 -1.32237e-06
1.00831e-06 -8.25119e-09 4.52298e-08
-3.57588e-07 1.89922e-05 -1.22764e-06
1.02393e-06 -7.89277e-09 5.76467e-08
-3.53192e-07 1.9013e-05 -1.22987e-06
1.02335e-06 -8.52309e-09 -1.14442e-08
-2.83074e-07 2.00465e-05 -1.30067e-06
9.90712e-07 -7.99786e-09 4.53171e-08
9.98032e-07 -8.18782e-09 -1.03489e-08
-2.71416e-07 2.00671e-05 -1.2734e-06
9.69757e-07 -7.73652e-09 4.59212e-08
1.00183e-06 -7.65223e-09 5.62619e-08
-3.33493e-07 1.90328e-05 -1.19434e-06
-2.16095e-07 1.97619e-05 -1.32845e-06
-2.22107e-07 1.97833e-05 -1.30736e-06
1.14097e-06 -8.76942e-09 6.05985e-08
-1.64892e-07 1.8571e-05 -1.22846e-06
-1.1246e-07 1.67948e-05 -1.14563e-06
1.15959e-06 -8.14577e-09 4.53456e-08
1.18385e-06 -7.43378e-09 3.67969e-08
-1.6403e-07 1.85915e-05 -1.21353e-06
1.13235e-06 -7.82087e-09 4.56379e-08
1.15693e-06 -7.13918e-09 3.70359e-08
1.11284e-06 -8.46534e-09 5.87545e-08
1.08944e-06 -8.15939e-09 5.92127e-08
1.10906e-06 -7.54952e-09 4.60204e-08
-1.1583e-07 1.68138e-05 -1.13863e-06
1.06992e-06 -7.88988e-09 5.96169e-08
-2.2454e-07 1.98041e-05 -1.30099e-06
-1.6226e-07 1.86105e-05 -1.21607e-06
-1.09774e-07 1.68319e-05 -1.12984e-06
1.13305e-06 -6.95096e-09 3.65887e-08
-2.14154e-07 1.98244e-05 -1.30685e-06
-1.59953e-07 1.86304e-05 -1.22617e-06
1.08972e-06 -7.34378e-09 4.61217e-08
1.11395e-06 -6.74403e-09 3.62825e-08
1.05033e-06 -7.62683e-09 5.97185e-08
1.07023e-06 -7.08893e-09 4.63289e-08
-1.14652e-07 1.68504e-05 -1.12005e-06
1.02826e-06 -7.35783e-09 5.97198e-08
-2.15753e-07 1.98448e-05 -1.28949e-06
-1.59265e-07 1.86499e-05 -1.22061e-06
-1.13371e-07 1.68687e-05 -1.11429e-06
1.09496e-06 -6.57043e-09 3.60526e-08
-2.12668e-07 1.98653e-05 -1.27226e-06
-1.63458e-07 1.86693e-05 -1.22735e-06
1.04796e-06 -6.90607e-09 4.53861e-08
1.07299e-06 -6.37173e-09 3.52747e-08
-2.82553e-07 1.99388e-05 -1.30938e-06
-3.42048e-07 1.89483e-05 -1.16697e-06
-3.71449e-07 1.69652e-05 -1.00037e-06
1.13222e-06 -9.3091e-09 6.57646e-08
1.09609e-06 -9.42047e-09 4.82597e-08
1.04108e-06 -8.76952e-09 -1.1361e-08
-3.25742e-07 1.69869e-05 -9.56005e-07
-3.31306e-07 1.70092e-05 -1.01948e-06
-2.79071e-07 1.99165e-05 -1.30823e-06
-3.48898e-07 1.89273e-05 -1.16363e-06
1.1604e-06 -9.63738e-09 6.77359e-08
1.12325e-06 -9.7505e-09 4.89813e-08
1.06701e-06 -9.04989e-09 -1.23335e-08
-2.87905e-07 1.98939e-05 -1.30469e-06
-3.49847e-07 1.89049e-05 -1.17204e-06
1.18541e-06 -9.97432e-09 6.86855e-08
1.14723e-06 -1.00894e-08 4.81353e-08
1.08955e-06 -9.33788e-09 -1.46585e-08
-2.84292e-07 1.98703e-05 -1.3097e-06
-3.34468e-07 1.88811e-05 -1.19505e-06
1.11459e-06 -9.62413e-09 -1.69117e-08
1.2133e-06 -1.03201e-08 7.09127e-08
1.17446e-06 -1.04292e-08 4.89046e-08
1.16359e-06 -1.0239e-08 -1.98715e-08
1.13899e-06 -9.93124e-09 -1.63621e-08
-2.78733e-07 1.98454e-05 -1.28831e-06
-3.15679e-07 1.88563e-05 -1.14654e-06
1.23778e-06 -1.06196e-08 7.3231e-08
1.19853e-06 -1.07231e-08 4.97817e-08
-2.96751e-07 1.98204e-05 -1.30127e-06
-3.35503e-07 1.88313e-05 -1.17862e-06
1.26592e-06 -1.09646e-08 7.50566e-08
1.22619e-06 -1.10502e-08 5.12905e-08
-3.18478e-07 1.70308e-05 -9.81659e-07
-3.22654e-07 1.70532e-05 -1.00572e-06
-2.12185e-07 1.97396e-05 -1.32026e-06
-1.62878e-07 1.85499e-05 -1.22584e-06
-1.11724e-07 1.67753e-05 -1.14365e-06
1.16072e-06 -9.02999e-09 6.10318e-08
1.18023e-06 -8.35662e-09 4.58459e-08
1.20464e-06 -7.60892e-09 3.77599e-08
-2.11811e-07 1.97177e-05 -1.31959e-06
-1.6238e-07 1.8529e-05 -1.23583e-06
-1.12509e-07 1.6756e-05 -1.1357e-06
1.18893e-06 -9.32171e-09 6.22909e-08
1.20859e-06 -8.67593e-09 4.52313e-08
1.23267e-06 -7.85533e-09 3.79352e-08
-2.19248e-07 1.96953e-05 -1.31275e-06
-2.13348e-07 1.96717e-05 -1.31373e-06
-2.13581e-07 1.9648e-05 -1.30812e-06
-2.30272e-07 1.96237e-05 -1.31531e-06
-1.6235e-07 1.85069e-05 -1.23932e-06
-1.16946e-07 1.67354e-05 -1.1353e-06
1.2142e-06 -9.64441e-09 6.32925e-08
1.23464e-06 -8.96276e-09 4.54154e-08
1.25879e-06 -8.09152e-09 3.82314e-08
-1.57797e-07 1.84853e-05 -1.23455e-06
-1.14621e-07 1.67152e-05 -1.12539e-06
1.24248e-06 -9.96997e-09 6.53146e-08
1.28697e-06 -8.36623e-09 3.9099e-08
1.26263e-06 -9.31705e-09 4.52841e-08
-1.5648e-07 1.84625e-05 -1.23211e-06
-1.17002e-07 1.66944e-05 -1.11228e-06
1.26761e-06 -1.02104e-08 6.81708e-08
-1.27745e-07 1.66732e-05 -1.1084e-06
1.28739e-06 -9.52412e-09 4.66394e-08
1.31239e-06 -8.57103e-09 3.98747e-08
1.29548e-06 -1.05769e-08 7.02906e-08
1.34226e-06 -8.83328e-09 4.18243e-08
-1.68288e-07 1.84393e-05 -1.23257e-06
1.31656e-06 -9.86842e-09 4.77991e-08
-1.82649e-07 1.84177e-05 -1.21323e-06
-1.36002e-07 1.66528e-05 -1.09765e-06
1.13403e-06 -3.4203e-09 2.14441e-08
1.14995e-06 -2.77988e-09 2.22213e-08
1.16488e-06 -2.32502e-09 1.94337e-08
-1.12008e-08 6.39589e-06 -4.45938e-07
-2.43736e-09 5.32973e-06 -3.73207e-07
-4.68355e-09 4.267e-06 -3.00686e-07
1.17502e-06 -1.66131e-09 1.39757e-08
1.18532e-06 -1.32179e-09 1.29577e-08
1.19544e-06 -1.20972e-09 1.09098e-08
-3.18552e-09 3.20205e-06 -2.27509e-07
-1.71074e-09 2.13505e-06 -1.50956e-07
-4.16973e-10 1.06744e-06 -7.54811e-08
1.20151e-06 -4.88479e-10 1.09997e-08
1.2059e-06 -2.12324e-10 9.28584e-09
1.20721e-06 -1.49464e-10 -2.2608e-09
-6.96398e-08 1.48285e-05 -1.0109e-06
1.23088e-06 -5.55327e-09 2.52923e-08
1.25352e-06 -4.90525e-09 2.30536e-08
1.20345e-06 -5.34914e-09 2.55602e-08
1.22576e-06 -4.72052e-09 2.34119e-08
-3.82284e-08 1.29474e-05 -8.97976e-07
-2.50853e-08 1.12773e-05 -7.87348e-07
1.20894e-06 -6.48299e-09 2.772e-08
1.18157e-06 -6.23406e-09 2.84398e-08
-3.82589e-08 1.29634e-05 -8.9546e-07
-2.62582e-08 1.12914e-05 -7.83506e-07
-7.45974e-08 1.48459e-05 -1.0023e-06
-2.80097e-08 1.13042e-05 -7.88474e-07
1.15707e-06 -6.05672e-09 2.83929e-08
1.17837e-06 -5.22807e-09 2.53041e-08
1.20049e-06 -4.62266e-09 2.30084e-08
-7.18505e-08 1.48629e-05 -9.98694e-07
1.15801e-06 -5.09652e-09 2.46439e-08
1.17966e-06 -4.52985e-09 2.17159e-08
-4.03581e-08 1.29783e-05 -8.95787e-07
-3.99387e-08 1.29931e-05 -8.88401e-07
-2.93551e-08 1.13177e-05 -7.86482e-07
1.13622e-06 -5.90385e-09 2.77528e-08
-2.93368e-08 1.13306e-05 -7.84462e-07
1.11623e-06 -5.71849e-09 2.76148e-08
1.13751e-06 -4.97323e-09 2.41003e-08
1.15885e-06 -4.44184e-09 2.08367e-08
-7.34725e-08 1.48795e-05 -9.94067e-07
1.11457e-06 -4.82189e-09 2.34978e-08
1.13567e-06 -4.31751e-09 2.00247e-08
-7.3433e-08 1.48958e-05 -9.8893e-07
-4.04307e-08 1.30079e-05 -8.80592e-07
-4.40917e-08 1.30214e-05 -8.77633e-07
-3.26124e-08 1.13429e-05 -7.79306e-07
1.09258e-06 -5.56399e-09 2.69778e-08
-1.89406e-08 8.62684e-06 -5.99668e-07
-1.76924e-08 7.47665e-06 -5.22398e-07
1.17148e-06 -2.85069e-09 2.26011e-08
1.18674e-06 -2.36687e-09 2.01701e-08
-1.52388e-08 9.83547e-06 -6.97529e-07
-1.26797e-08 9.84777e-06 -6.91763e-07
1.27711e-06 -4.1898e-09 2.25671e-08
1.29397e-06 -3.33029e-09 2.3656e-08
1.31126e-06 -2.76981e-09 2.24645e-08
1.28166e-06 -2.64452e-09 2.22532e-08
-1.04866e-08 8.57538e-06 -6.03717e-07
-1.09538e-08 7.43162e-06 -5.21871e-07
-8.63656e-09 8.58619e-06 -6.00467e-07
-1.0339e-08 7.44099e-06 -5.21122e-07
1.248e-06 -4.01938e-09 2.31242e-08
1.26476e-06 -3.22886e-09 2.38136e-08
1.22222e-06 -3.86698e-09 2.29812e-08
1.23897e-06 -3.12402e-09 2.37801e-08
1.25529e-06 -2.59477e-09 2.17248e-08
1.23312e-06 -2.50107e-09 2.11379e-08
-1.44661e-08 9.85978e-06 -6.9257e-07
-1.26799e-08 8.59646e-06 -6.02566e-07
-1.31904e-08 7.45004e-06 -5.23079e-07
-1.20199e-08 8.60694e-06 -6.03189e-07
-1.2424e-08 7.45922e-06 -5.23879e-07
1.20038e-06 -3.76995e-09 2.25313e-08
1.21693e-06 -3.05674e-09 2.31196e-08
1.17894e-06 -3.63495e-09 2.22307e-08
1.19524e-06 -2.94107e-09 2.30846e-08
1.2107e-06 -2.44461e-09 2.0692e-08
-1.65888e-08 9.87161e-06 -6.93295e-07
-1.73302e-08 9.88287e-06 -6.90092e-07
-1.44799e-08 8.61692e-06 -6.02475e-07
-1.39141e-08 7.46798e-06 -5.23492e-07
1.15496e-06 -3.52688e-09 2.18275e-08
-2.08208e-08 9.89359e-06 -6.87911e-07
-6.97863e-08 1.4811e-05 -1.01173e-06
-2.16819e-08 1.12632e-05 -7.79652e-07
-3.70742e-08 1.29317e-05 -8.94238e-07
1.25329e-06 -5.64708e-09 2.52335e-08
1.27655e-06 -4.99482e-09 2.33367e-08
1.23104e-06 -6.62835e-09 2.74748e-08
-7.08228e-08 1.47934e-05 -1.00866e-06
-3.6113e-08 1.29157e-05 -8.87519e-07
-2.33731e-08 1.1249e-05 -7.81206e-07
1.28204e-06 -5.7811e-09 2.53332e-08
1.30567e-06 -5.1376e-09 2.36579e-08
1.25976e-06 -6.84578e-09 2.73133e-08
-7.75047e-08 1.47174e-05 -9.96203e-07
-7.87273e-08 1.46984e-05 -9.82092e-07
-7.36677e-08 1.47748e-05 -1.00501e-06
-2.08662e-08 1.12342e-05 -7.75916e-07
-3.4299e-08 1.28989e-05 -8.81167e-07
-7.18013e-08 1.47565e-05 -1.00268e-06
-7.3791e-08 1.47371e-05 -1.00018e-06
1.30947e-06 -5.94371e-09 2.48223e-08
1.33357e-06 -5.28615e-09 2.36612e-08
1.28707e-06 -7.09167e-09 2.67061e-08
-3.10737e-08 1.28823e-05 -8.74588e-07
-2.01034e-08 1.12197e-05 -7.74157e-07
1.33829e-06 -6.11119e-09 2.50762e-08
1.3627e-06 -5.45789e-09 2.36818e-08
1.31584e-06 -7.35394e-09 2.67065e-08
1.3412e-06 -7.53259e-09 2.72196e-08
1.36453e-06 -6.22983e-09 2.46244e-08
1.3891e-06 -5.56028e-09 2.32556e-08
-1.73257e-08 1.12046e-05 -7.73252e-07
-3.05631e-08 1.28649e-05 -8.71233e-07
-3.07631e-08 1.28473e-05 -8.71932e-07
-1.97791e-08 1.11889e-05 -7.77459e-07
1.37055e-06 -7.7878e-09 2.76133e-08
1.39429e-06 -6.41683e-09 2.39178e-08
1.41913e-06 -5.74505e-09 2.2371e-08
-2.01633e-08 1.11736e-05 -7.67644e-07
-3.00712e-08 1.28303e-05 -8.56392e-07
-1.33044e-08 9.82276e-06 -6.92896e-07
-8.94973e-09 7.42204e-06 -5.18006e-07
-9.81446e-09 8.56433e-06 -6.00952e-07
1.33603e-06 -2.83851e-09 2.28249e-08
1.30038e-06 -4.34553e-09 2.2346e-08
1.31765e-06 -3.44349e-09 2.34004e-08
-1.47564e-08 9.81e-06 -6.89988e-07
-9.85308e-09 8.55301e-06 -6.01881e-07
-9.98289e-09 7.41214e-06 -5.1796e-07
1.34797e-06 -3.53126e-09 2.34707e-08
1.36612e-06 -2.95741e-09 2.28893e-08
1.33013e-06 -4.52046e-09 2.2143e-08
-1.39931e-08 9.79662e-06 -6.87471e-07
-9.23847e-09 7.40174e-06 -5.18202e-07
-1.01099e-08 8.54108e-06 -6.02416e-07
1.35886e-06 -4.65684e-09 2.2302e-08
1.3764e-06 -3.67024e-09 2.3499e-08
1.39496e-06 -3.08388e-09 2.2873e-08
-1.54068e-08 9.78349e-06 -6.87625e-07
-1.65198e-08 9.76981e-06 -6.91257e-07
-1.98291e-08 9.75564e-06 -6.90742e-07
-2.10222e-08 9.7425e-06 -6.87549e-07
1.42564e-06 -3.14638e-09 2.33214e-08
-8.23893e-09 7.39141e-06 -5.18227e-07
-8.68524e-09 8.52967e-06 -6.01689e-07
1.40698e-06 -3.74709e-09 2.37438e-08
-9.74393e-09 8.51745e-06 -6.03863e-07
-1.05722e-08 7.38095e-06 -5.18992e-07
1.38868e-06 -4.78786e-09 2.29414e-08
1.4157e-06 -4.85311e-09 2.34992e-08
1.43372e-06 -3.87021e-09 2.38602e-08
1.45275e-06 -3.24683e-09 2.34079e-08
-1.01453e-08 8.50515e-06 -6.01887e-07
-1.11768e-08 7.37007e-06 -5.17393e-07
1.44643e-06 -5.00297e-09 2.35388e-08
1.46543e-06 -3.97047e-09 2.40713e-08
1.48467e-06 -3.31753e-09 2.3961e-08
-1.15045e-08 8.49326e-06 -6.0247e-07
-1.20916e-08 7.35959e-06 -5.169e-07
-1.05826e-08 6.38825e-06 -4.48236e-07
-1.46375e-09 5.32338e-06 -3.73446e-07
-4.13245e-09 4.26189e-06 -3.0131e-07
1.19763e-06 -1.71139e-09 1.37663e-08
1.20812e-06 -1.36446e-09 1.28481e-08
1.21841e-06 -1.23837e-09 1.08691e-08
-1.01259e-08 6.38103e-06 -4.49723e-07
-2.70279e-10 5.31746e-06 -3.72922e-07
-3.49117e-09 4.25713e-06 -3.01073e-07
-7.57775e-09 6.34927e-06 -4.52009e-07
-6.96318e-09 6.35735e-06 -4.50993e-07
-1.5266e-09 4.23576e-06 -3.02966e-07
1.32433e-06 -2.09084e-09 1.22265e-08
1.33587e-06 -1.63926e-09 1.21136e-08
1.34716e-06 -1.41376e-09 1.09572e-08
1.29455e-06 -1.99293e-09 1.25358e-08
1.30579e-06 -1.56328e-09 1.21407e-08
1.31689e-06 -1.37645e-09 1.0796e-08
2.93927e-09 5.29093e-06 -3.76702e-07
2.78175e-09 5.29769e-06 -3.75292e-07
-1.83524e-09 4.24121e-06 -3.02462e-07
-2.27824e-09 4.24652e-06 -3.02398e-07
1.2672e-06 -1.90116e-09 1.27922e-08
1.27826e-06 -1.49733e-09 1.2232e-08
1.28926e-06 -1.33716e-09 1.08101e-08
1.24493e-06 -1.84044e-09 1.27647e-08
1.25584e-06 -1.4651e-09 1.22321e-08
1.2665e-06 -1.29856e-09 1.05691e-08
-8.49155e-09 6.36517e-06 -4.52949e-07
1.28941e-09 5.30426e-06 -3.75888e-07
-8.27456e-09 6.37313e-06 -4.52207e-07
1.38003e-09 5.31086e-06 -3.75206e-07
-2.53098e-09 4.25182e-06 -3.0196e-07
1.22181e-06 -1.76089e-09 1.35518e-08
1.23236e-06 -1.40629e-09 1.268e-08
1.24276e-06 -1.2799e-09 1.06639e-08
-2.98961e-09 3.19818e-06 -2.28091e-07
-1.50841e-09 2.13247e-06 -1.5129e-07
-3.64771e-10 1.06615e-06 -7.56727e-08
1.22462e-06 -5.14379e-10 1.11877e-08
1.22906e-06 -2.19461e-10 9.5124e-09
1.23036e-06 -1.37228e-10 -2.11264e-09
-1.38284e-09 2.13006e-06 -1.5115e-07
-2.20889e-09 3.17844e-06 -2.29065e-07
-2.09495e-09 3.18255e-06 -2.28626e-07
-8.4594e-10 2.11928e-06 -1.51701e-07
1.35422e-06 -6.20745e-10 1.21645e-08
1.35917e-06 -2.64739e-10 1.03192e-08
1.36061e-06 -1.04123e-10 -1.93769e-09
1.32368e-06 -5.85522e-10 1.1852e-08
1.32849e-06 -2.41976e-10 1.01259e-08
1.32987e-06 -1.03165e-10 -2.13997e-09
-4.86678e-10 1.05954e-06 -7.58982e-08
-9.72494e-10 2.12204e-06 -1.51376e-07
-4.29654e-10 1.06092e-06 -7.56796e-08
-9.73507e-10 2.12472e-06 -1.51662e-07
1.2959e-06 -5.82094e-10 1.14603e-08
1.30068e-06 -2.48885e-10 9.90823e-09
1.30209e-06 -1.23566e-10 -2.21379e-09
1.27298e-06 -5.48203e-10 1.14662e-08
1.27761e-06 -2.33956e-10 9.62562e-09
1.27895e-06 -1.26943e-10 -2.26327e-09
-2.5085e-09 3.18658e-06 -2.28701e-07
-3.8119e-10 1.06228e-06 -7.58851e-08
-2.31836e-09 3.19056e-06 -2.28397e-07
-1.02748e-09 2.12739e-06 -1.51292e-07
-3.11492e-10 1.06361e-06 -7.56951e-08
1.24902e-06 -5.30375e-10 1.12982e-08
1.25352e-06 -2.2908e-10 9.53754e-09
1.25482e-06 -1.41199e-10 -2.36389e-09
-2.46865e-09 3.1944e-06 -2.28258e-07
-3.01514e-10 1.06489e-06 -7.57102e-08
-6.61061e-09 6.34094e-06 -4.49804e-07
3.82263e-09 5.28394e-06 -3.7573e-07
-1.14928e-09 4.23014e-06 -3.02526e-07
1.36149e-06 -1.67998e-09 1.21546e-08
1.37309e-06 -1.43816e-09 1.11651e-08
1.34893e-06 -2.16049e-09 1.21782e-08
-8.14178e-09 6.33239e-06 -4.4874e-07
3.72931e-09 5.2768e-06 -3.75479e-07
-1.14868e-09 4.2244e-06 -3.02253e-07
1.37998e-06 -2.25998e-09 1.23842e-08
1.39175e-06 -1.72373e-09 1.22173e-08
1.4035e-06 -1.46571e-09 1.13345e-08
-8.17303e-09 6.32345e-06 -4.47126e-07
4.35859e-09 5.26928e-06 -3.75478e-07
-7.68084e-10 4.21836e-06 -3.02121e-07
-1.0548e-08 6.30555e-06 -4.46247e-07
-1.21542e-08 6.2961e-06 -4.46298e-07
-1.28469e-08 6.2872e-06 -4.45703e-07
1.42209e-06 -1.78045e-09 1.23674e-08
1.43414e-06 -1.50269e-09 1.15577e-08
1.40942e-06 -2.35055e-09 1.24953e-08
-8.317e-09 6.31453e-06 -4.46024e-07
1.441e-06 -2.48235e-09 1.30808e-08
1.45294e-06 -1.84355e-09 1.25527e-08
1.46521e-06 -1.54982e-09 1.17284e-08
5.10027e-09 5.26188e-06 -3.74177e-07
-3.92235e-10 4.21234e-06 -3.01971e-07
5.31033e-09 5.25447e-06 -3.73779e-07
-5.68491e-10 4.20638e-06 -3.01406e-07
1.4813e-06 -1.86677e-09 1.29908e-08
1.4939e-06 -1.59085e-09 1.18915e-08
1.46858e-06 -2.55256e-09 1.37616e-08
4.88144e-09 5.24662e-06 -3.72988e-07
-8.50136e-10 4.20006e-06 -3.0083e-07
1.50113e-06 -2.68004e-09 1.44216e-08
1.51302e-06 -1.90542e-09 1.32552e-08
1.5258e-06 -1.63669e-09 1.1807e-08
3.93447e-09 5.23911e-06 -3.72663e-07
-6.12486e-10 4.19412e-06 -2.98542e-07
-1.95958e-09 3.17422e-06 -2.28206e-07
-8.9703e-10 2.11645e-06 -1.5146e-07
-5.23022e-10 1.05812e-06 -7.57013e-08
1.3804e-06 -6.31569e-10 1.23849e-08
1.3855e-06 -2.62992e-10 1.06069e-08
1.3864e-06 -1.05637e-10 -1.84554e-09
-2.10079e-09 3.16989e-06 -2.27945e-07
-9.43438e-10 2.11355e-06 -1.514e-07
-5.96165e-10 1.05667e-06 -7.56557e-08
1.41094e-06 -6.50521e-10 1.24634e-08
1.4161e-06 -2.79367e-10 1.08287e-08
1.41759e-06 -8.8261e-11 -1.75474e-09
-2.02868e-09 3.16535e-06 -2.27781e-07
-8.30958e-10 2.1105e-06 -1.5124e-07
-6.03692e-10 1.05515e-06 -7.55635e-08
1.44184e-06 -6.71653e-10 1.28461e-08
1.44651e-06 -3.02572e-10 1.10954e-08
1.44806e-06 -9.60763e-11 -1.67114e-09
-1.99797e-09 3.1608e-06 -2.2782e-07
1.47309e-06 -6.89339e-10 1.30636e-08
1.47848e-06 -2.92956e-10 1.14358e-08
1.48001e-06 -6.65311e-11 -1.67705e-09
-7.59541e-10 2.10746e-06 -1.51341e-07
-6.50831e-10 1.05362e-06 -7.56021e-08
-2.44637e-09 3.1563e-06 -2.27557e-07
-2.77961e-09 3.15154e-06 -2.27179e-07
-2.86077e-09 3.14704e-06 -2.25752e-07
-8.47346e-10 2.10443e-06 -1.5159e-07
-7.97983e-10 1.0521e-06 -7.57188e-08
1.50195e-06 -7.08807e-10 1.32066e-08
1.50677e-06 -2.98459e-10 1.16751e-08
1.50833e-06 -5.25365e-11 -1.76259e-09
-1.01058e-09 2.1012e-06 -1.51815e-07
-8.88844e-10 1.05049e-06 -7.57732e-08
1.53402e-06 -7.4534e-10 1.33168e-08
1.53961e-06 -3.05848e-10 1.21292e-08
1.54118e-06 -4.0762e-11 -1.50114e-09
-1.03507e-09 2.09817e-06 -1.51007e-07
-9.86103e-10 1.04897e-06 -7.54122e-08
2.89592e-14 1.01622e-10 -7.34193e-12
4.30344e-14 1.02697e-10 -7.4365e-12
4.69571e-14 1.02086e-10 -7.39785e-12
5.13141e-14 1.03921e-10 -7.4837e-12
-3.01641e-15 1.13527e-10 -8.03087e-12
-4.10265e-10 -1.0672e-06 7.55031e-08
-1.70774e-09 -2.1348e-06 1.51106e-07
1.20718e-06 1.44441e-10 2.11503e-09
1.20591e-06 2.11766e-10 -9.66104e-09
1.20148e-06 4.89153e-10 -1.11273e-08
-3.05776e-09 -3.20179e-06 2.2763e-07
-4.5063e-09 -4.26673e-06 3.00813e-07
-2.45271e-09 -5.32953e-06 3.73182e-07
1.19546e-06 1.21482e-09 -1.1216e-08
1.18532e-06 1.31552e-09 -1.3049e-08
1.175e-06 1.66034e-09 -1.404e-08
-1.11817e-08 -6.39569e-06 4.45788e-07
1.16485e-06 2.32568e-09 -1.95673e-08
1.1499e-06 2.78586e-09 -2.23184e-08
1.13402e-06 3.427e-09 -2.1605e-08
-2.50997e-15 1.14374e-10 -8.13133e-12
-3.68705e-10 -1.06592e-06 7.57684e-08
-1.53028e-09 -2.13224e-06 1.51605e-07
-2.95588e-09 -3.19795e-06 2.28397e-07
1.23033e-06 1.30817e-10 2.02394e-09
1.22907e-06 2.17957e-10 -9.84624e-09
1.22457e-06 5.11758e-10 -1.12972e-08
1.06485e-14 1.16772e-10 -8.31506e-12
-4.03045e-10 -1.06472e-06 7.57939e-08
-1.42597e-09 -2.12984e-06 1.5163e-07
-2.89438e-09 -3.19436e-06 2.28408e-07
-9.86232e-10 -2.11907e-06 1.52342e-07
1.3606e-06 6.83267e-11 1.70205e-09
1.35925e-06 2.50709e-10 -1.09216e-08
1.35422e-06 6.18707e-10 -1.21753e-08
1.32983e-06 7.92794e-11 1.95652e-09
1.32852e-06 2.33281e-10 -1.06195e-08
1.32368e-06 5.81276e-10 -1.20104e-08
4.96317e-14 1.05289e-10 -7.58532e-12
-5.31119e-10 -1.05933e-06 7.62412e-08
3.77233e-14 1.05704e-10 -7.56648e-12
-4.54603e-10 -1.06071e-06 7.58882e-08
-1.06844e-09 -2.12182e-06 1.51824e-07
-2.27908e-09 -3.17823e-06 2.30317e-07
-2.07488e-09 -3.18232e-06 2.29523e-07
2.27269e-14 1.24654e-10 -8.91785e-12
-1.01839e-09 -2.12445e-06 1.51966e-07
1.30209e-06 1.12306e-10 2.12332e-09
1.3008e-06 2.46672e-10 -1.02626e-08
1.29608e-06 5.75389e-10 -1.17058e-08
1.2789e-06 1.06849e-10 2.08298e-09
1.27759e-06 2.2703e-10 -1.01182e-08
1.27291e-06 5.44674e-10 -1.15908e-08
-3.91246e-10 -1.06202e-06 7.6015e-08
-2.42485e-09 -3.1863e-06 2.29415e-07
1.33337e-14 1.20132e-10 -8.57421e-12
-3.32375e-10 -1.06338e-06 7.58544e-08
-1.09955e-09 -2.12717e-06 1.51727e-07
-2.35828e-09 -3.19035e-06 2.28955e-07
1.25478e-06 1.34094e-10 2.25312e-09
1.2535e-06 2.27811e-10 -9.90354e-09
1.24896e-06 5.26684e-10 -1.14417e-08
-4.09125e-09 -4.26167e-06 3.01759e-07
-1.49705e-09 -5.32318e-06 3.73589e-07
-1.05923e-08 -6.38805e-06 4.48326e-07
1.21841e-06 1.24092e-09 -1.11692e-08
1.20809e-06 1.3586e-09 -1.29942e-08
1.19758e-06 1.71109e-09 -1.38836e-08
-3.57835e-09 -4.25694e-06 3.0183e-07
-3.16593e-10 -5.31724e-06 3.73224e-07
-1.01584e-08 -6.38081e-06 4.50024e-07
-1.7106e-09 -4.23554e-06 3.04609e-07
1.34728e-06 1.4318e-09 -1.13866e-08
1.33591e-06 1.63076e-09 -1.23012e-08
1.32436e-06 2.08911e-09 -1.23623e-08
1.31698e-06 1.38477e-09 -1.13177e-08
1.30582e-06 1.55403e-09 -1.23149e-08
2.84494e-09 -5.29074e-06 3.77008e-07
-1.91353e-09 -4.24098e-06 3.03835e-07
2.71997e-09 -5.29751e-06 3.75557e-07
1.29391e-06 1.98816e-09 -1.26787e-08
-7.66595e-09 -6.34909e-06 4.52326e-07
-7.00904e-09 -6.35717e-06 4.5123e-07
-2.24656e-09 -4.24623e-06 3.03603e-07
1.2896e-06 1.33683e-09 -1.13752e-08
1.27864e-06 1.48916e-09 -1.2385e-08
1.26765e-06 1.89909e-09 -1.29118e-08
1.26651e-06 1.30538e-09 -1.10458e-08