# vtk DataFile Version 3.0
vtk output
ASCII
DATASET POLYDATA
POINTS 6868 float
0.189456 0.339823 -0.0191538
0.199525 0.344781 -0.0191986
0.189476 0.329836 -0.0185677
0.199543 0.334792 -0.0185937
0.209606 0.339747 -0.0186665
0.219666 0.3447 -0.0188176
0.239783 0.344633 -0.0186171
0.259872 0.344791 -0.0186933
0.319957 0.344645 -0.018687
0.339934 0.344614 -0.0186038
0.359892 0.344585 -0.0185792
0.380082 0.344641 -0.018643
0.40006 0.344616 -0.018544
0.440057 0.344569 -0.0185547
0.46004 0.344564 -0.0185037
0.480024 0.34456 -0.0184993
0.159374 0.344901 -0.0183267
0.179526 0.344817 -0.0183843
0.229735 0.339667 -0.0183788
0.24987 0.339711 -0.0183562
0.269877 0.339775 -0.0182971
0.279874 0.34473 -0.018577
0.299838 0.34468 -0.0185282
0.329945 0.339634 -0.0183347
0.34991 0.339602 -0.0182812
0.369854 0.339573 -0.0182863
0.390063 0.339629 -0.018293
0.42003 0.344572 -0.0185376
0.450036 0.339566 -0.0182458
0.490001 0.339558 -0.0182446
0.169466 0.339866 -0.018075
0.139234 0.344975 -0.0180067
0.1895 0.31985 -0.0180178
0.199561 0.324802 -0.0180424
0.209623 0.329752 -0.0180944
0.219682 0.334701 -0.0182262
0.239797 0.334633 -0.0180126
0.25988 0.334819 -0.018094
0.289857 0.339713 -0.01823
0.309802 0.339664 -0.0182292
0.319954 0.33466 -0.018106
0.339926 0.334625 -0.0180206
0.359877 0.334593 -0.0179979
0.380071 0.33465 -0.0180736
0.400045 0.334621 -0.0179825
0.410033 0.339585 -0.0182677
0.430008 0.339561 -0.0182423
0.440035 0.334573 -0.0180188
0.460013 0.334565 -0.0179733
0.479994 0.334561 -0.0179769
0.470003 0.339537 -0.018285
0.810544 0.339823 -0.0191532
0.800474 0.344781 -0.0191981
0.49999 0.344559 -0.0185474
0.519976 0.34456 -0.0185057
0.53996 0.344564 -0.0185107
0.559943 0.344569 -0.0185634
0.599941 0.344616 -0.0185501
0.619919 0.344641 -0.0186495
0.640108 0.344584 -0.0185807
0.660066 0.344613 -0.0186053
0.680043 0.344644 -0.0186886
0.740128 0.344791 -0.0186938
0.810524 0.329836 -0.0185671
0.800457 0.334792 -0.0185932
0.790394 0.339747 -0.0186661
0.760217 0.344633 -0.0186172
0.780334 0.344699 -0.0188174
0.509999 0.339558 -0.018251
0.529982 0.339561 -0.0182284
0.549964 0.339566 -0.0182536
0.609937 0.33963 -0.0182993
0.57997 0.344572 -0.0185439
0.630146 0.339573 -0.0182877
0.65009 0.339601 -0.0182826
0.670055 0.339633 -0.0183362
0.730123 0.339774 -0.0182978
0.700162 0.344679 -0.0185289
0.720126 0.344729 -0.0185777
0.750129 0.33971 -0.0183566
0.770265 0.339666 -0.0183788
0.820473 0.344817 -0.0183831
0.840626 0.344901 -0.0183253
0.500024 0.334561 -0.0180351
0.520006 0.334561 -0.0179833
0.539987 0.334566 -0.0179805
0.559965 0.334573 -0.0180276
0.599956 0.334622 -0.0179888
0.61993 0.334651 -0.0180802
0.569993 0.339561 -0.0182489
0.589968 0.339585 -0.0182739
0.640123 0.334593 -0.0179993
0.660074 0.334625 -0.0180221
0.680046 0.334659 -0.0181076
0.74012 0.334819 -0.0180946
0.690198 0.339663 -0.0182299
0.710143 0.339712 -0.0182307
0.8105 0.31985 -0.0180174
0.800439 0.324802 -0.018042
0.790377 0.329752 -0.0180941
0.760203 0.334633 -0.0180127
0.780318 0.334701 -0.018226
0.830534 0.339866 -0.0180738
0.860765 0.344975 -0.0180052
0.118987 0.465474 -0.0227796
0.108971 0.470526 -0.0221526
0.11898 0.455421 -0.0222147
0.108986 0.46049 -0.0215669
0.118969 0.445371 -0.0216731
0.099022 0.465582 -0.0207237
0.10899 0.450401 -0.021002
0.118978 0.435222 -0.021112
0.108983 0.440262 -0.0204672
0.0990313 0.455406 -0.0201204
0.0891065 0.470512 -0.019578
0.119006 0.425091 -0.0205136
0.108995 0.430138 -0.0199529
0.099032 0.445281 -0.0196172
0.119025 0.415044 -0.0199385
0.0891165 0.460401 -0.0190299
0.109031 0.420094 -0.0193905
0.0990362 0.435197 -0.019169
0.119067 0.404994 -0.0194157
0.0891103 0.450333 -0.0185763
0.119095 0.394962 -0.0189083
0.109067 0.410059 -0.0188837
0.0990622 0.425151 -0.0186771
0.119134 0.384924 -0.0183885
0.109097 0.40002 -0.018377
0.0891021 0.440281 -0.0181587
0.099093 0.415115 -0.0181741
0.169426 0.349851 -0.0186903
0.149274 0.349922 -0.0185284
0.159323 0.354881 -0.0189487
0.179487 0.354802 -0.0190079
0.13917 0.354947 -0.0186206
0.149218 0.359911 -0.0191067
0.169386 0.359838 -0.0193102
0.159282 0.364869 -0.0195572
0.179455 0.36479 -0.019624
0.139116 0.364929 -0.0192237
0.149176 0.369899 -0.0196975
0.169354 0.369827 -0.019914
0.159254 0.374881 -0.0200972
0.179433 0.37481 -0.0201829
0.139077 0.374927 -0.0197363
0.169338 0.379882 -0.0204162
0.149156 0.37992 -0.0202061
0.159237 0.384945 -0.0206069
0.179424 0.384886 -0.0207153
0.13905 0.38497 -0.0202129
0.169326 0.389969 -0.0209631
0.149133 0.389989 -0.0207267
0.17942 0.394993 -0.0212849
0.159226 0.395006 -0.0211765
0.169319 0.400092 -0.0215447
0.149113 0.400094 -0.0212759
0.179419 0.405142 -0.0218912
0.159215 0.405134 -0.0217494
0.169313 0.410262 -0.0221667
0.149096 0.41025 -0.0218542
0.139 0.405134 -0.0213084
0.128902 0.410231 -0.0211667
0.139023 0.395022 -0.02077
0.128934 0.400097 -0.0206213
0.128942 0.390004 -0.0201362
0.12898 0.379955 -0.019647
0.129011 0.369944 -0.0192197
0.129068 0.359962 -0.0186366
0.129135 0.349992 -0.0180364
0.189421 0.349823 -0.0197311
0.209584 0.34975 -0.0192667
0.22972 0.349669 -0.0189809
0.249859 0.349724 -0.0189754
0.199491 0.354778 -0.0198236
0.219649 0.354699 -0.0194351
0.239771 0.354635 -0.0192144
0.189376 0.359829 -0.0203577
0.209561 0.359753 -0.0198897
0.229709 0.359672 -0.0195932
0.249851 0.359735 -0.0195769
0.19946 0.364786 -0.0204546
0.219635 0.364703 -0.0200588
0.239762 0.364639 -0.0198262
0.189335 0.369854 -0.0209923
0.209542 0.369771 -0.0205245
0.2297 0.369681 -0.0202198
0.249846 0.369754 -0.0202055
0.199438 0.374826 -0.0210156
0.219628 0.374736 -0.0206203
0.239759 0.374674 -0.0203852
0.189309 0.379941 -0.0214905
0.209538 0.379813 -0.0210586
0.229703 0.379755 -0.0207271
0.249852 0.379835 -0.0206771
0.199423 0.384932 -0.0215646
0.219629 0.384831 -0.0211578
0.239764 0.384774 -0.0209189
0.189277 0.390037 -0.0221389
0.209533 0.389935 -0.0216361
0.229709 0.389879 -0.0212964
0.24986 0.389971 -0.0211875
0.199408 0.395099 -0.022175
0.219634 0.394975 -0.0217502
0.239774 0.394917 -0.0215084
0.189249 0.400237 -0.0227897
0.209531 0.400114 -0.0222668
0.229719 0.400054 -0.0219261
0.24987 0.400168 -0.021733
0.199396 0.40533 -0.0228632
0.219641 0.405177 -0.0224149
0.239787 0.405113 -0.0221737
0.189221 0.410506 -0.0235248
0.209528 0.410437 -0.0230064
0.229731 0.410281 -0.0226378
0.249882 0.410443 -0.0223434
0.159196 0.415372 -0.0223536
0.179414 0.415318 -0.0225311
0.138974 0.415285 -0.0218598
0.1693 0.420453 -0.0228038
0.149074 0.420429 -0.0224453
0.128844 0.420394 -0.0217341
0.159183 0.425468 -0.0229643
0.179411 0.425398 -0.0231415
0.138947 0.425543 -0.0224421
0.149054 0.430508 -0.0230538
0.169296 0.430435 -0.0233809
0.128815 0.430611 -0.0223368
0.179416 0.43541 -0.0236594
0.159186 0.435502 -0.0235097
0.13894 0.435581 -0.0230046
0.14907 0.440548 -0.0235866
0.16932 0.440488 -0.023878
0.12882 0.440644 -0.0228989
0.179443 0.445474 -0.0241341
0.159207 0.44556 -0.0240306
0.138952 0.445631 -0.0235611
0.149083 0.450602 -0.0241299
0.169342 0.450549 -0.0243861
0.128823 0.450668 -0.0234504
0.179467 0.455545 -0.0246254
0.159225 0.455626 -0.0245518
0.138963 0.455696 -0.0240962
0.169355 0.460599 -0.0249053
0.149097 0.460677 -0.0246636
0.12883 0.460741 -0.0239791
0.179482 0.465627 -0.0251908
0.138961 0.46575 -0.0246751
0.159234 0.465709 -0.0251373
0.169357 0.47069 -0.0255426
0.14909 0.470771 -0.0253064
0.128815 0.470841 -0.0246074
0.19938 0.415478 -0.0235785
0.219644 0.415423 -0.0231399
0.239797 0.41535 -0.0228967
0.189189 0.420521 -0.024205
0.209521 0.420465 -0.0236594
0.229736 0.420384 -0.0232996
0.249878 0.420623 -0.022986
0.199366 0.425514 -0.0242405
0.219649 0.42542 -0.0237557
0.239808 0.425331 -0.023478
0.189165 0.430566 -0.0248839
0.209523 0.430492 -0.0242904
0.22975 0.430393 -0.0238892
0.249875 0.430611 -0.0235413
0.199369 0.43553 -0.0248421
0.21967 0.435435 -0.0243054
0.239835 0.435347 -0.0239809
0.189168 0.440548 -0.0254647
0.209549 0.440485 -0.024831
0.229788 0.440396 -0.0243751
0.249892 0.440654 -0.0240648
0.199388 0.445545 -0.0253873
0.219705 0.445455 -0.0248118
0.239879 0.4454 -0.0244416
0.189174 0.450573 -0.0259991
0.209577 0.450513 -0.0253435
0.229829 0.450455 -0.0248571
0.249895 0.450724 -0.0246567
0.199406 0.455597 -0.0259079
0.219742 0.455535 -0.0253127
0.239918 0.455454 -0.0248823
0.189179 0.460684 -0.0265682
0.209604 0.460583 -0.0258564
0.229867 0.460524 -0.025332
0.249896 0.460833 -0.0251705
0.199419 0.465688 -0.0264845
0.219772 0.465619 -0.0258572
0.239954 0.465537 -0.0253793
0.189177 0.47077 -0.0271695
0.209621 0.470683 -0.0264796
0.229896 0.470613 -0.0259195
0.249903 0.470949 -0.0257412
0.0592914 0.535879 -0.0179595
0.118966 0.475527 -0.0234095
0.0989834 0.475614 -0.0213634
0.0791688 0.475553 -0.018355
0.108933 0.480579 -0.0228392
0.0890211 0.48068 -0.0203498
0.118928 0.485598 -0.0241645
0.0989098 0.485626 -0.0220963
0.079093 0.485606 -0.0190795
0.10886 0.490626 -0.0236401
0.08893 0.490676 -0.0211489
0.118846 0.49567 -0.0250538
0.0988291 0.495657 -0.0229695
0.0789832 0.49575 -0.020005
0.108782 0.500721 -0.0244782
0.0888453 0.5007 -0.0219483
0.0690587 0.500636 -0.018536
0.118777 0.505818 -0.0258838
0.0987422 0.505767 -0.0237431
0.0788902 0.505742 -0.0207461
0.1087 0.510852 -0.0253451
0.0887545 0.510793 -0.0227448
0.0689879 0.51082 -0.0193305
0.118707 0.515983 -0.0267779
0.0986517 0.515871 -0.0245927
0.0788083 0.515791 -0.0215203
0.108623 0.521033 -0.0262092
0.0886577 0.520881 -0.0235593
0.0689128 0.520799 -0.0200044
0.118639 0.526213 -0.0276494
0.0985755 0.526038 -0.0254184
0.0787265 0.525877 -0.0222718
0.108557 0.53126 -0.0269931
0.0885809 0.531012 -0.0242893
0.0688587 0.530863 -0.0205988
0.118563 0.536511 -0.0284956
0.0985023 0.536253 -0.026145
0.0786401 0.535989 -0.0229145
0.059104 0.545929 -0.0187317
0.0589418 0.555941 -0.0194337
0.0587541 0.566133 -0.0202565
0.0490266 0.570907 -0.0180634
0.0586552 0.576388 -0.0207781
0.0488932 0.581014 -0.0184852
0.0585913 0.586441 -0.0211413
0.048827 0.591244 -0.0186479
0.0585479 0.5965 -0.0212833
0.108459 0.541537 -0.0278949
0.0884805 0.541238 -0.02506
0.0687535 0.540976 -0.0212756
0.118449 0.546662 -0.0295102
[...]
POINT_DATA 6868
VECTORS alpha float
5.7731e-06 -1.81298e-08 1.83556e-07
-8.26807e-09 1.56913e-05 -1.06462e-06
5.57208e-06 -1.82402e-08 1.84726e-07
-8.43158e-09 1.58552e-05 -1.07518e-06
6.10345e-06 -1.97712e-08 1.30142e-07
8.55701e-09 1.47211e-05 -9.93927e-07
2.14924e-08 1.32489e-05 -8.88098e-07
1.09988e-08 1.16334e-05 -8.24401e-07
9.70854e-09 7.52088e-06 -5.3029e-07
7.66328e-09 6.50938e-06 -4.57319e-07
5.92806e-09 5.60669e-06 -3.92889e-07
3.67017e-09 4.77107e-06 -3.37632e-07
1.81711e-09 3.95796e-06 -2.79617e-07
1.35556e-09 2.36089e-06 -1.66394e-07
4.35475e-10 1.57037e-06 -1.10297e-07
-1.71236e-11 7.83962e-07 -5.49718e-08
-1.66391e-08 1.4848e-05 -1.00776e-06
5.23992e-09 1.57672e-05 -1.08349e-06
6.40877e-06 -2.11583e-08 6.69089e-08
6.67253e-06 -2.29189e-08 5.74951e-08
6.88441e-06 -1.79012e-08 4.98087e-08
1.30041e-08 1.00652e-05 -7.12256e-07
1.33373e-08 8.68749e-06 -6.11792e-07
7.38976e-06 -1.21144e-08 3.16586e-08
7.50061e-06 -1.13967e-08 9.34946e-09
7.59274e-06 -1.05673e-08 -1.25074e-08
7.69255e-06 -1.01276e-08 3.65965e-08
4.78083e-10 3.15496e-06 -2.24466e-07
7.86375e-06 -2.58965e-09 1.90321e-08
7.90929e-06 -6.93449e-10 -1.82999e-08
5.41817e-06 -2.26454e-08 -9.27018e-09
-3.30161e-08 1.31797e-05 -8.82684e-07
5.34148e-06 -1.88993e-08 1.87497e-07
-7.1866e-09 1.59968e-05 -1.08436e-06
5.86833e-06 -2.02796e-08 1.34128e-07
1.02705e-08 1.48688e-05 -1.00382e-06
2.39351e-08 1.33808e-05 -8.94837e-07
1.18919e-08 1.17457e-05 -8.31302e-07
7.07373e-06 -1.80739e-08 1.6955e-08
7.23154e-06 -1.7034e-08 -1.51981e-08
1.01044e-08 7.58695e-06 -5.3431e-07
8.03373e-09 6.56471e-06 -4.61039e-07
6.28209e-09 5.65326e-06 -3.96436e-07
3.71153e-09 4.81003e-06 -3.39477e-07
1.82391e-09 3.99036e-06 -2.81446e-07
7.76149e-06 -9.96043e-09 1.85549e-08
7.81873e-06 -9.11466e-09 1.64013e-09
1.34211e-09 2.38092e-06 -1.68033e-07
4.15222e-10 1.58398e-06 -1.11516e-07
-3.25873e-11 7.90849e-07 -5.5652e-08
7.89245e-06 -2.14789e-09 -2.06688e-09
5.7733e-06 1.81702e-08 -1.83487e-07
-8.2591e-09 -1.56913e-05 1.06455e-06
6.53623e-14 2.05623e-10 -1.44206e-11
-1.71254e-11 -7.83519e-07 5.49361e-08
4.28377e-10 -1.56993e-06 1.10258e-07
1.33428e-09 -2.36047e-06 1.6636e-07
1.78095e-09 -3.95758e-06 2.79604e-07
3.59774e-09 -4.77071e-06 3.37667e-07
5.9134e-09 -5.6066e-06 3.92999e-07
7.64801e-09 -6.50928e-06 4.57425e-07
9.69357e-09 -7.52077e-06 5.3038e-07
1.09808e-08 -1.16332e-05 8.24503e-07
5.57221e-06 1.82795e-08 -1.84649e-07
-8.41026e-09 -1.58551e-05 1.07511e-06
6.10367e-06 1.98154e-08 -1.30061e-07
2.15062e-08 -1.32489e-05 8.88043e-07
8.56951e-09 -1.47211e-05 9.93855e-07
7.90929e-06 5.63664e-10 1.83813e-08
7.89362e-06 1.56533e-09 -5.22944e-10
7.86367e-06 2.55076e-09 -1.96842e-08
7.69256e-06 1.02276e-08 -3.67171e-08
4.6777e-10 -3.15456e-06 2.2442e-07
7.59272e-06 1.05704e-08 1.24761e-08
7.50066e-06 1.13983e-08 -9.38215e-09
7.38987e-06 1.21143e-08 -3.16948e-08
6.88463e-06 1.79498e-08 -4.97726e-08
1.33251e-08 -8.68742e-06 6.11799e-07
1.29899e-08 -1.00651e-05 7.12301e-07
6.67277e-06 2.29678e-08 -5.74369e-08
6.40901e-06 2.12068e-08 -6.68163e-08
5.27219e-09 -1.57673e-05 1.08325e-06
-1.66059e-08 -1.4848e-05 1.00753e-06
6.35765e-14 1.86657e-10 -1.31552e-11
-3.22791e-11 -7.90433e-07 5.56204e-08
4.08683e-10 -1.58354e-06 1.11481e-07
1.3216e-09 -2.38048e-06 1.67999e-07
1.7852e-09 -3.98992e-06 2.8144e-07
3.63577e-09 -4.80959e-06 3.39523e-07
7.81859e-06 9.13964e-09 -1.36773e-09
7.7614e-06 1.00233e-08 -1.84789e-08
6.26848e-09 -5.65312e-06 3.96564e-07
8.01982e-09 -6.56457e-06 4.61163e-07
1.00912e-08 -7.58679e-06 5.34419e-07
1.18798e-08 -1.17455e-05 8.31407e-07
7.23171e-06 1.7079e-08 1.51767e-08
7.07393e-06 1.81208e-08 -1.69438e-08
5.34194e-06 1.89433e-08 -1.87441e-07
-7.15449e-09 -1.59968e-05 1.08429e-06
5.86848e-06 2.03206e-08 -1.34041e-07
2.39591e-08 -1.33808e-05 8.94791e-07
1.02949e-08 -1.48688e-05 1.00376e-06
5.41836e-06 2.26435e-08 9.30051e-09
-3.29832e-08 -1.31797e-05 8.8246e-07
5.75816e-08 1.12752e-05 -6.32187e-07
7.38522e-06 -1.61126e-08 -7.46013e-07
6.07731e-08 1.12047e-05 -6.16008e-07
6.13728e-06 -1.59204e-08 -6.12919e-07
5.84646e-08 1.11142e-05 -6.13338e-07
4.37684e-08 1.20007e-05 -6.38494e-07
5.23882e-06 -1.72182e-08 -5.12181e-07
4.99227e-08 1.10322e-05 -6.0267e-07
4.67281e-06 -2.1263e-08 -4.45568e-07
4.87368e-08 1.1998e-05 -5.84953e-07
7.16391e-06 -1.49534e-08 -1.01401e-06
4.07102e-08 1.09828e-05 -6.01276e-07
4.35969e-06 -2.72638e-08 -4.04017e-07
4.35695e-08 1.19496e-05 -5.6668e-07
3.37078e-08 1.09779e-05 -6.06425e-07
6.08166e-06 -2.0813e-08 -8.4559e-07
4.24562e-06 -2.54532e-08 -3.86206e-07
3.27448e-08 1.18874e-05 -5.7526e-07
2.14865e-08 1.09987e-05 -6.13709e-07
5.26776e-06 -2.40173e-08 -7.20739e-07
1.25627e-08 1.10642e-05 -6.23179e-07
4.11679e-06 -2.34875e-08 -3.66509e-07
2.13249e-08 1.18483e-05 -5.90628e-07
2.37431e-09 1.11644e-05 -6.36835e-07
4.19372e-06 -2.30676e-08 -3.64404e-07
4.72114e-06 -2.7269e-08 -6.36134e-07
9.9929e-09 1.1844e-05 -6.06911e-07
5.54764e-06 -2.21178e-08 -1.23856e-08
5.17141e-06 -1.98407e-08 -8.57349e-08
-3.22179e-09 1.46677e-05 -9.81347e-07
1.77139e-08 1.55832e-05 -1.05677e-06
-1.95912e-08 1.30102e-05 -8.56755e-07
5.19804e-06 -1.77486e-08 -9.05687e-08
5.58927e-06 -2.14985e-08 -1.37616e-08
8.30159e-09 1.44808e-05 -9.51765e-07
2.79866e-08 1.53887e-05 -1.0254e-06
-7.71139e-09 1.28382e-05 -8.29532e-07
5.17087e-06 -1.73346e-08 -9.4189e-08
5.56574e-06 -2.16052e-08 -1.65318e-08
1.80526e-08 1.43011e-05 -9.24958e-07
3.63677e-08 1.51958e-05 -9.95561e-07
2.64771e-09 1.2678e-05 -8.04858e-07
5.40785e-06 -1.70446e-08 -2.34793e-08
5.0317e-06 -1.39627e-08 -9.79297e-08
2.41975e-08 1.4137e-05 -9.12281e-07
4.14834e-08 1.50118e-05 -9.78908e-07
9.3338e-09 1.25391e-05 -7.9376e-07
5.19204e-06 -1.39344e-08 -2.71917e-08
4.85298e-06 -1.09606e-08 -1.00204e-07
4.25031e-08 1.48388e-05 -9.69882e-07
2.74718e-08 1.39859e-05 -9.06332e-07
4.86605e-06 -1.19723e-08 -3.05482e-08
4.59114e-06 -9.09232e-09 -1.00578e-07
4.05038e-08 1.46907e-05 -9.63127e-07
2.7203e-08 1.38689e-05 -9.01157e-07
4.53404e-06 -1.1358e-08 -3.40261e-08
4.34538e-06 -8.6182e-09 -1.01633e-07
1.37038e-08 1.23342e-05 -7.90717e-07
4.21934e-06 -6.33475e-09 -1.88621e-07
1.26548e-08 1.24182e-05 -7.93461e-07
4.37677e-06 -6.48737e-09 -1.88447e-07
4.56978e-06 -7.86466e-09 -1.87127e-07
4.70287e-06 -1.08519e-08 -1.85174e-07
4.8144e-06 -1.50505e-08 -1.79032e-07
4.83595e-06 -1.5969e-08 -1.74467e-07
4.81443e-06 -1.73536e-08 -1.69563e-07
5.93654e-06 -1.70105e-08 1.80034e-07
6.30047e-06 -1.90079e-08 1.31183e-07
6.64114e-06 -2.09168e-08 7.09433e-08
6.93703e-06 -2.03127e-08 7.09983e-08
-2.37705e-09 1.55148e-05 -1.04489e-06
1.26303e-08 1.45548e-05 -9.80374e-07
2.39093e-08 1.3098e-05 -8.8083e-07
6.00751e-06 -1.57481e-08 1.80837e-07
6.39885e-06 -1.83168e-08 1.351e-07
6.77113e-06 -2.0828e-08 7.75466e-08
7.09893e-06 -1.72258e-08 8.51098e-08
3.31266e-09 1.53223e-05 -1.02314e-06
1.63622e-08 1.43702e-05 -9.63618e-07
2.58607e-08 1.29279e-05 -8.7056e-07
6.00399e-06 -1.5346e-08 1.7803e-07
6.41551e-06 -1.84693e-08 1.35571e-07
6.81445e-06 -2.17071e-08 8.07853e-08
7.17162e-06 -1.44263e-08 9.71247e-08
8.33238e-09 1.51328e-05 -1.01163e-06
1.94821e-08 1.41839e-05 -9.54393e-07
2.7251e-08 1.27518e-05 -8.66157e-07
5.84597e-06 -1.3792e-08 1.66516e-07
6.26182e-06 -1.75515e-08 1.3453e-07
6.67358e-06 -1.93486e-08 7.83239e-08
7.0509e-06 -1.00213e-08 1.03114e-07
1.16283e-08 1.49509e-05 -1.01896e-06
2.16945e-08 1.39984e-05 -9.58381e-07
2.82862e-08 1.25709e-05 -8.71049e-07
5.61104e-06 -1.43221e-08 1.71674e-07
6.01117e-06 -1.6741e-08 1.3193e-07
6.41989e-06 -1.79748e-08 7.74692e-08
6.80542e-06 -7.39281e-09 1.04678e-07
1.334e-08 1.47704e-05 -1.0355e-06
2.32031e-08 1.38077e-05 -9.64748e-07
2.91819e-08 1.23797e-05 -8.73386e-07
5.2362e-06 -1.50189e-08 1.60734e-07
5.59575e-06 -1.68353e-08 1.2328e-07
5.97847e-06 -1.75476e-08 7.21324e-08
6.35473e-06 -6.63715e-09 9.88615e-08
1.40948e-08 1.46021e-05 -1.05747e-06
2.39547e-08 1.3623e-05 -9.73843e-07
2.92849e-08 1.21878e-05 -8.7711e-07
4.82871e-06 -1.69042e-08 1.48147e-07
5.12069e-06 -1.71429e-08 1.0665e-07
5.452e-06 -1.81523e-08 6.5396e-08
5.7947e-06 -7.26245e-09 8.90761e-08
3.02192e-08 1.37951e-05 -9.01106e-07
4.40728e-08 1.45772e-05 -9.47207e-07
2.06312e-08 1.22917e-05 -7.82149e-07
4.45181e-06 -1.27169e-08 -3.92772e-08
4.34515e-06 -9.94164e-09 -1.07508e-07
4.2948e-06 -6.78609e-09 -1.96129e-07
4.27336e-08 1.37481e-05 -8.58346e-07
5.51555e-08 1.44971e-05 -8.87337e-07
3.01413e-08 1.22834e-05 -7.80589e-07
4.28371e-06 -1.41147e-08 -1.06015e-07
4.28021e-06 -1.73426e-08 -3.16805e-08
4.33233e-06 -1.02578e-08 -2.04442e-07
6.38346e-08 1.44783e-05 -8.03175e-07
5.41171e-08 1.37603e-05 -8.01438e-07
4.17016e-08 1.23201e-05 -7.40076e-07
4.45051e-06 -1.16986e-08 -1.03095e-07
4.33477e-06 -1.4862e-08 -2.37187e-08
4.58954e-06 -8.24081e-09 -2.11461e-07
7.13135e-08 1.45254e-05 -7.47325e-07
6.34872e-08 1.38339e-05 -7.45694e-07
5.20772e-08 1.24076e-05 -6.88638e-07
4.94369e-06 -1.12416e-08 -1.07611e-07
4.73623e-06 -1.47315e-08 -1.62368e-08
5.1416e-06 -7.15518e-09 -2.33943e-07
7.33293e-08 1.46294e-05 -7.34349e-07
6.71432e-08 1.39521e-05 -7.35181e-07
5.68656e-08 1.25243e-05 -6.80973e-07
5.62298e-06 -1.58013e-08 -1.53415e-08
5.88299e-06 -1.25659e-08 -1.27709e-07
6.08893e-06 -7.79291e-09 -2.82251e-07
6.76822e-08 1.47747e-05 -7.69624e-07
5.22989e-08 1.26412e-05 -7.17462e-07
6.23607e-08 1.40942e-05 -7.74879e-07
7.08193e-06 -2.13002e-08 -1.48984e-08
7.3296e-06 -1.75309e-08 -1.61054e-07
7.46903e-06 -1.19002e-08 -3.5695e-07
1.99799e-08 1.44522e-05 -1.03293e-06
2.64354e-08 1.34578e-05 -9.75186e-07
3.00275e-08 1.20082e-05 -8.73722e-07
4.66689e-06 -1.92843e-08 1.50507e-07
4.87834e-06 -2.00552e-08 1.11944e-07
5.1382e-06 -1.9856e-08 6.68352e-08
5.42815e-06 -1.02726e-08 8.54048e-08
3.17384e-08 1.43316e-05 -9.51864e-07
3.36905e-08 1.3312e-05 -8.86537e-07
3.33711e-08 1.18474e-05 -7.89426e-07
4.38321e-06 -2.24169e-08 1.53027e-07
4.4832e-06 -2.28469e-08 1.12788e-07
4.64303e-06 -2.23342e-08 6.90874e-08
4.84801e-06 -1.29358e-08 8.04744e-08
4.20228e-08 1.42918e-05 -8.62606e-07
4.0391e-08 1.32389e-05 -8.01541e-07
3.66661e-08 1.17458e-05 -7.12071e-07
4.31688e-06 -2.04342e-08 1.5878e-07
4.28575e-06 -1.98951e-08 1.18229e-07
4.32064e-06 -1.8347e-08 7.70803e-08
4.4186e-06 -1.13402e-08 7.30079e-08
5.28371e-08 1.43263e-05 -7.56493e-07
4.72718e-08 1.32357e-05 -7.02444e-07
4.0846e-08 1.1705e-05 -6.29363e-07
4.61115e-06 -2.1682e-08 1.72497e-07
4.44664e-06 -2.0021e-08 1.29773e-07
4.34663e-06 -1.81612e-08 8.85994e-08
4.32791e-06 -1.40458e-08 6.78609e-08
6.11315e-08 1.44213e-05 -7.02427e-07
5.29184e-08 1.32939e-05 -6.56277e-07
4.24084e-08 1.17247e-05 -5.85049e-07
5.4267e-06 -2.85327e-08 2.13229e-07
5.13923e-06 -2.36403e-08 1.58451e-07
4.90448e-06 -2.00021e-08 1.11326e-07
4.76085e-06 -1.97005e-08 6.82861e-08
6.40777e-08 1.45661e-05 -7.11984e-07
5.35705e-08 1.34098e-05 -6.61683e-07
4.07928e-08 1.18041e-05 -5.89766e-07
6.87535e-06 -3.8497e-08 2.70175e-07
6.50029e-06 -3.25734e-08 2.10178e-07
6.15231e-06 -2.58127e-08 1.53767e-07
5.89586e-06 -2.8966e-08 7.61331e-08
-4.64104e-08 2.60338e-05 -1.5668e-06
5.75431e-08 1.12896e-05 -6.7523e-07
3.94934e-08 1.19183e-05 -6.92586e-07
4.00636e-08 1.73916e-05 -8.93376e-07
9.01239e-06 -1.29245e-08 -9.20831e-07
8.52668e-06 -4.92312e-09 -1.24673e-06
5.17514e-08 1.11958e-05 -7.34801e-07
3.75031e-08 1.17127e-05 -7.56156e-07
2.57838e-08 1.70585e-05 -1.02707e-06
1.09605e-05 1.80072e-10 -1.13357e-06
1.01093e-05 -3.02664e-09 -1.50547e-06
3.75542e-08 1.09426e-05 -8.15119e-07
2.29955e-08 1.13324e-05 -8.34294e-07
-1.3949e-10 1.65343e-05 -1.20133e-06
1.31559e-05 2.30038e-08 -1.37617e-06
1.18441e-05 1.99801e-08 -1.78889e-06
1.03145e-05 -6.86277e-09 -2.01202e-06
1.79681e-08 1.04705e-05 -8.67488e-07
1.092e-08 1.07423e-05 -8.79293e-07
-1.68362e-08 1.58194e-05 -1.24129e-06
1.54002e-05 5.45345e-08 -1.63367e-06
1.35634e-05 6.56482e-08 -2.08275e-06
1.15529e-05 4.98949e-08 -2.32238e-06
2.15124e-09 9.73445e-06 -8.56596e-07
-3.02597e-09 9.88561e-06 -8.6186e-07
-3.12955e-08 1.48801e-05 -1.24425e-06
1.7402e-05 8.67184e-08 -1.89673e-06
1.5003e-05 9.341e-08 -2.33137e-06
1.25056e-05 7.81686e-08 -2.55362e-06
-8.8537e-09 8.7027e-06 -7.8194e-07
-1.49577e-08 8.75554e-06 -7.82821e-07
-3.80056e-08 1.37026e-05 -1.18071e-06
1.88105e-05 1.18594e-07 -2.1386e-06
1.5874e-05 1.29277e-07 -2.5315e-06
1.29567e-05 1.19811e-07 -2.71178e-06
-9.09952e-09 7.35362e-06 -6.46505e-07
-1.42231e-08 7.35202e-06 -6.4102e-07
-2.85973e-08 1.22998e-05 -1.03398e-06
-1.0031e-08 2.45835e-05 -1.62432e-06
1.87824e-08 2.32309e-05 -1.60476e-06
3.7094e-08 2.21375e-05 -1.42018e-06
3.03152e-06 2.3975e-08 -8.32758e-07
6.38901e-08 2.14814e-05 -1.09741e-06
-1.59906e-06 -2.08879e-08 4.47875e-07
9.19164e-08 2.15e-05 -7.63054e-07
-7.59014e-06 -1.37499e-07 2.13618e-06
1.37067e-07 2.2527e-05 -3.28441e-07
1.92165e-05 1.37236e-07 -2.32084e-06
1.58425e-05 1.62786e-07 -2.63318e-06
1.26535e-05 1.4681e-07 -2.71113e-06
-1.2223e-08 5.72145e-06 -5.15332e-07
-1.35039e-08 5.73253e-06 -4.92168e-07
-2.66027e-08 1.07651e-05 -8.80274e-07
1.82387e-05 1.46142e-07 -2.31561e-06
1.45975e-05 1.75479e-07 -2.55603e-06
1.13526e-05 1.609e-07 -2.52097e-06
-1.15133e-08 3.9708e-06 -3.26826e-07
-1.85938e-08 9.1904e-06 -6.71846e-07
-1.05566e-08 3.86075e-06 -3.43624e-07
1.16194e-05 1.57231e-07 -2.15262e-06
8.67242e-06 1.46878e-07 -2.01188e-06
1.51868e-05 1.40086e-07 -2.10286e-06
-1.36358e-08 7.74202e-06 -4.92512e-07
-5.65877e-09 1.90645e-06 -1.54582e-07
-5.80446e-09 2.2271e-06 -1.63773e-07
4.40383e-06 8.33215e-08 -1.05287e-06
9.66112e-06 1.03948e-07 -1.37414e-06
6.60211e-06 1.00755e-07 -1.25931e-06
-7.01926e-09 6.64699e-06 -3.43493e-07
-1.1463e-10 4.64559e-08 -3.15003e-09
-1.41128e-09 7.13149e-07 -4.33768e-08
-1.66716e-06 -3.48777e-08 4.07195e-07
1.22437e-06 1.57958e-08 -1.78864e-07
-7.71793e-07 -1.38337e-08 1.50388e-07
1.83007e-09 -1.4631e-06 7.22059e-08
1.46074e-10 -3.02687e-07 1.27511e-08
4.79621e-09 6.1778e-06 -2.09374e-07
-9.68529e-06 -2.26484e-07 2.39569e-06
-1.04733e-05 -1.6308e-07 1.54852e-06
-1.07392e-05 -2.21207e-07 2.11748e-06
-2.55799e-09 -2.30331e-06 5.07706e-08
-1.02324e-09 -4.95845e-07 7.86074e-09
2.26324e-08 6.64995e-06 -5.8282e-08
5.46716e-08 1.42243e-05 -8.51139e-07
5.70296e-08 1.4934e-05 -8.54535e-07
4.88363e-08 1.27212e-05 -7.9246e-07
9.35839e-06 -2.03633e-08 -2.19515e-07
9.21504e-06 -2.76296e-08 -1.74746e-08
9.33153e-06 -1.41679e-08 -4.79593e-07
4.27188e-08 1.4308e-05 -1.01007e-06
4.09524e-08 1.50794e-05 -1.02561e-06
4.03478e-08 1.27201e-05 -9.32495e-07
1.19358e-05 -2.03617e-08 -3.20677e-07
1.20094e-05 -3.02992e-08 -4.08389e-08
1.16267e-05 -1.28957e-08 -6.63027e-07
1.62187e-08 1.42875e-05 -1.26599e-06
1.01459e-08 1.5154e-05 -1.31565e-06
1.796e-08 1.25828e-05 -1.14512e-06
1.49977e-05 -3.40923e-09 -4.26828e-07
1.54092e-05 -1.87756e-08 -7.8966e-08
1.42865e-05 6.17248e-09 -8.42242e-07
2.24716e-09 1.22593e-05 -1.25123e-06
-5.49725e-09 1.41041e-05 -1.42495e-06
-1.61808e-08 1.51002e-05 -1.50138e-06
1.70888e-05 6.07646e-08 -9.65691e-07
1.83046e-05 3.74988e-08 -5.00065e-07
1.91658e-05 1.33618e-08 -1.11314e-07
-4.05871e-08 1.48715e-05 -1.59917e-06
-1.05385e-08 1.1685e-05 -1.27904e-06
-2.51203e-08 1.36984e-05 -1.49976e-06
2.29795e-05 7.16544e-08 -2.19924e-07
1.97219e-05 1.23029e-07 -1.13482e-06
2.15482e-05 9.13533e-08 -6.24519e-07
-5.84253e-08 1.4379e-05 -1.62795e-06
-1.52324e-08 1.08106e-05 -1.21713e-06
-3.70824e-08 1.30087e-05 -1.4876e-06
2.63666e-05 1.08044e-07 -3.3991e-07
2.42654e-05 1.56842e-07 -7.90259e-07
2.1775e-05 1.75804e-07 -1.29691e-06
6.18539e-08 1.47428e-05 -8.08686e-07
4.87737e-08 1.35744e-05 -7.45152e-07
3.55992e-08 1.19363e-05 -6.68703e-07
9.08679e-06 -5.6624e-08 3.49397e-07
8.68401e-06 -4.66969e-08 2.93776e-07
8.26721e-06 -3.22516e-08 2.34564e-07
7.9193e-06 -3.9606e-08 1.11462e-07
4.96691e-08 1.4924e-05 -1.04414e-06
3.75454e-08 1.37574e-05 -9.60508e-07
2.36471e-08 1.21092e-05 -8.50754e-07
1.20765e-05 -8.2904e-08 4.3296e-07
1.17319e-05 -6.79003e-08 3.97939e-07
1.13171e-05 -4.48717e-08 3.51235e-07
1.0922e-05 -5.97524e-08 2.01247e-07
2.17485e-08 1.50701e-05 -1.45351e-06
1.04709e-08 1.39446e-05 -1.33638e-06
-1.46825e-10 1.22927e-05 -1.19192e-06
1.58091e-05 -1.04201e-07 5.85005e-07
1.56203e-05 -7.7576e-08 5.36687e-07
1.52917e-05 -4.88114e-08 4.82061e-07
1.49475e-05 -7.89176e-08 3.41782e-07
9.00317e-10 1.51367e-05 -1.69782e-06
-9.06313e-09 1.40751e-05 -1.57137e-06
-1.8086e-08 1.24614e-05 -1.39561e-06
2.00359e-05 -9.27252e-08 8.41541e-07
2.01072e-05 -6.88817e-08 7.43067e-07
1.99584e-05 -4.11917e-08 6.32612e-07
1.97672e-05 -7.21804e-08 4.96275e-07
-1.96861e-08 1.50716e-05 -1.87861e-06
-2.83513e-08 1.41112e-05 -1.75169e-06
-3.49639e-08 1.25575e-05 -1.5578e-06
2.44794e-05 -6.93639e-08 1.10692e-06
2.49419e-05 -5.6058e-08 9.60222e-07
2.50954e-05 -3.76253e-08 7.92475e-07
2.51572e-05 -4.54617e-08 6.82273e-07
-4.54743e-08 1.39853e-05 -1.86373e-06
-4.9701e-08 1.25296e-05 -1.66462e-06
-3.5504e-08 1.47995e-05 -1.96305e-06
3.01701e-05 -5.67904e-08 9.85474e-07
2.86139e-05 -5.29668e-08 1.38516e-06
2.95924e-05 -5.2804e-08 1.19377e-06
3.05836e-05 -3.19224e-08 8.66242e-07
-6.97229e-08 1.35598e-05 -1.56396e-06
-1.16424e-08 9.59577e-06 -1.04337e-06
-3.92375e-08 1.19833e-05 -1.35582e-06
2.59336e-05 1.78181e-07 -8.79634e-07
2.87335e-05 1.24258e-07 -4.44072e-07
2.27753e-05 2.22947e-07 -1.38173e-06
-7.01095e-08 1.23971e-05 -1.37313e-06
-3.40679e-08 1.05942e-05 -1.11308e-06
-4.62193e-09 8.03631e-06 -7.82866e-07
2.59958e-05 1.8747e-07 -9.60207e-07
2.9471e-05 1.33753e-07 -5.90701e-07
2.22476e-05 2.24229e-07 -1.37766e-06
-2.63803e-08 8.84489e-06 -7.92943e-07
-6.60563e-08 1.08552e-05 -1.0828e-06
2.13606e-09 6.16043e-06 -4.79665e-07
2.3455e-05 1.83005e-07 -1.01319e-06
2.74494e-05 1.35447e-07 -6.99364e-07
1.93334e-05 2.06497e-07 -1.33489e-06
-1.94527e-08 6.82466e-06 -5.46992e-07
-5.72328e-08 9.00013e-06 -8.13826e-07
3.57297e-09 4.09028e-06 -2.79783e-07
1.76792e-05 1.67874e-07 -8.87025e-07
2.19267e-05 1.37476e-07 -6.60341e-07
1.35155e-05 1.69601e-07 -1.0616e-06
-1.00995e-08 4.67461e-06 -3.04053e-07
-4.23337e-08 6.93943e-06 -5.25087e-07
4.14064e-09 1.99591e-06 -1.05181e-07
1.20903e-05 9.79656e-08 -3.91748e-07
4.25303e-06 6.37319e-08 -3.61202e-07
7.99049e-06 8.88804e-08 -4.42287e-07
-2.16419e-09 2.59771e-06 -1.1299e-07
-2.52933e-08 4.84266e-06 -2.63162e-07
4.31608e-10 1.11095e-07 -3.43026e-09
-2.8211e-06 -2.85831e-08 9.93893e-08
-8.93252e-06 -1.58948e-07 7.95635e-07
-6.22584e-06 -8.43966e-08 3.64327e-07
-1.10753e-08 2.95886e-06 -7.67235e-08
-7.87822e-09 -1.26067e-06 3.79764e-09
9.14297e-10 8.73439e-07 -1.35821e-08
-6.21527e-08 1.22711e-05 -1.64948e-06
-4.24511e-08 1.41901e-05 -1.86219e-06
-5.36479e-08 1.35687e-05 -1.78907e-06
3.17391e-05 -3.69878e-08 1.56173e-06
3.33354e-05 -6.38089e-08 1.3581e-06
3.44513e-05 -8.61926e-08 1.10891e-06
3.5303e-05 -9.01999e-08 1.03954e-06
-6.58252e-08 1.17472e-05 -1.41852e-06
-3.85472e-08 1.32498e-05 -1.54391e-06
-5.48882e-08 1.2857e-05 -1.53344e-06
3.32079e-05 -4.35236e-08 1.62965e-06
3.54773e-05 -1.01525e-07 1.4135e-06
3.71996e-05 -1.57773e-07 1.13944e-06
3.86689e-05 -1.22936e-07 9.73755e-07
-6.68682e-08 1.09216e-05 -1.10909e-06
-3.05259e-08 1.19247e-05 -1.09256e-06
-5.17136e-08 1.17944e-05 -1.14887e-06
3.1751e-05 -5.45721e-08 1.38456e-06
3.46706e-05 -1.23618e-07 1.23516e-06
3.70145e-05 -1.94732e-07 1.02216e-06
3.90354e-05 -1.45619e-07 7.20434e-07
-2.6725e-08 1.02687e-05 -8.66814e-07
-4.96926e-08 1.04126e-05 -9.43625e-07
-6.72302e-08 9.80086e-06 -9.36129e-07
2.65126e-05 -2.62797e-08 9.72912e-07
2.99679e-05 -8.80183e-08 9.32234e-07
3.28664e-05 -1.57309e-07 8.3384e-07
3.54302e-05 -1.51512e-07 5.33579e-07
-1.84432e-08 8.36495e-06 -5.96463e-07
-4.17256e-08 8.76446e-06 -6.84942e-07
-6.09246e-08 8.42044e-06 -7.05776e-07
1.65415e-05 5.80219e-09 5.49874e-07
2.03017e-05 -3.33727e-08 5.86747e-07
2.35845e-05 -8.4282e-08 5.74092e-07
2.65034e-05 -1.09015e-07 3.08325e-07
-7.4906e-09 6.35841e-06 -3.22206e-07
-2.91498e-08 6.96517e-06 -4.05403e-07
-4.88053e-08 6.86643e-06 -4.44626e-07
9.03999e-07 2.48209e-09 2.75777e-08
4.61304e-06 3.0921e-09 1.21941e-07
7.99462e-06 -1.0897e-08 1.76462e-07
1.10025e-05 -3.81582e-08 1.19522e-07
3.13003e-09 4.46421e-06 -9.27372e-08
-1.46e-08 5.19725e-06 -1.4944e-07
-3.29547e-08 5.29106e-06 -1.9053e-07