# vtk DataFile Version 3.0
vtk output
ASCII
DATASET POLYDATA
POINTS 21816 float
0.192584 0.964804 -0.0549576
0.17119 0.965041 -0.0545408
0.192703 0.954812 -0.0543823
0.181995 0.959927 -0.0545832
0.203416 0.9597 -0.0545098
0.214112 0.964595 -0.0545245
0.171319 0.955047 -0.0540552
0.182113 0.94993 -0.0540671
0.171442 0.945051 -0.0535819
0.192812 0.944821 -0.0538352
0.203524 0.949709 -0.0539367
0.214207 0.954607 -0.0539206
0.2248 0.959509 -0.0539156
0.160165 0.98015 -0.0546921
0.15924 1.03012 -0.0575855
0.15943 1.02012 -0.0569996
0.148575 1.02524 -0.0564149
0.159607 1.01013 -0.0564476
0.159775 1.00014 -0.0558834
0.148787 1.01525 -0.05586
0.1377 1.03035 -0.0555801
0.148935 1.00525 -0.0554084
0.159992 0.990144 -0.0552934
0.137941 1.02036 -0.0550165
0.149143 0.995259 -0.0548579
0.149341 0.985265 -0.0542819
0.138134 1.01037 -0.0545126
0.138363 1.00037 -0.0539725
0.149527 0.97527 -0.0537221
0.127402 1.02546 -0.0535087
0.181869 0.96992 -0.0551306
0.203291 0.969691 -0.0551152
0.224705 0.969497 -0.0545417
0.160369 0.970156 -0.0541524
0.192442 0.974799 -0.0555622
0.171022 0.975036 -0.0551044
0.213989 0.974587 -0.0551475
0.181736 0.979912 -0.0556498
0.203159 0.979683 -0.0557184
0.224595 0.979488 -0.0551819
0.192308 0.984792 -0.0561576
0.170858 0.985029 -0.0556583
0.213885 0.984579 -0.0557433
0.181585 0.989906 -0.0562226
0.203028 0.989673 -0.0563395
0.224493 0.989475 -0.0558245
0.192161 0.994785 -0.0567716
0.170666 0.995022 -0.0562615
0.213763 0.994569 -0.0563721
0.202894 0.999664 -0.0569625
0.181391 0.999902 -0.0568321
0.181246 1.00989 -0.0573515
0.19203 1.00478 -0.0573212
0.202767 1.00966 -0.0575515
0.213644 1.00456 -0.0570017
0.224278 1.00946 -0.0571111
0.170313 1.01501 -0.0574374
0.170101 1.025 -0.0580654
0.191894 1.01477 -0.0579127
0.213531 1.01455 -0.0576383
0.181077 1.01989 -0.0579802
0.202628 1.01965 -0.0582092
0.191722 1.02476 -0.0585561
0.213388 1.02454 -0.0583213
0.202495 1.02964 -0.0587964
0.180889 1.02988 -0.0586134
0.224037 1.02943 -0.0584425
0.224167 1.01944 -0.057782
0.17048 1.00502 -0.0568744
0.224383 0.999467 -0.0564635
0.148353 1.03524 -0.0569894
0.127179 1.03546 -0.0540213
0.159009 1.04011 -0.0581999
0.137463 1.04035 -0.0561389
0.148121 1.04523 -0.0575783
0.12695 1.04545 -0.054539
0.158789 1.0501 -0.0587922
0.137233 1.05034 -0.056684
0.147839 1.05522 -0.0582441
0.158558 1.0601 -0.0594144
0.136991 1.06033 -0.0572308
0.147581 1.06522 -0.0588289
0.158328 1.07009 -0.0600467
0.147319 1.07521 -0.0594421
0.136789 1.07032 -0.0576887
0.158111 1.08009 -0.0605942
0.136532 1.08032 -0.0582289
0.147095 1.0852 -0.0600345
0.157886 1.09008 -0.0612235
0.136377 1.09031 -0.0586715
0.146896 1.09519 -0.0605251
0.157622 1.10007 -0.0618885
0.136068 1.1003 -0.0592487
0.125756 1.09542 -0.0569577
0.125906 1.08543 -0.0566421
0.126167 1.07543 -0.0561222
0.126446 1.06544 -0.0555785
0.115446 1.10054 -0.0547366
0.126708 1.05545 -0.0550789
0.115798 1.09054 -0.0541211
0.115898 1.08055 -0.0537898
0.16992 1.035 -0.0586455
0.191548 1.03475 -0.0591634
0.21325 1.03453 -0.0589828
0.180722 1.03987 -0.059203
0.20236 1.03963 -0.0594302
0.223913 1.03942 -0.0590994
0.169727 1.04499 -0.0592504
0.191393 1.04475 -0.0597945
0.213122 1.04452 -0.059641
0.202215 1.04962 -0.0600585
0.180563 1.04986 -0.0597983
0.223793 1.04941 -0.0597537
0.169536 1.05498 -0.0598214
0.191235 1.05474 -0.060391
0.202075 1.05962 -0.060672
0.223669 1.0594 -0.0604168
0.213 1.05451 -0.0602722
0.180358 1.05986 -0.0604298
0.191082 1.06473 -0.0609904
0.21285 1.0645 -0.0609294
0.169322 1.06498 -0.0604334
0.180196 1.06985 -0.0610381
0.201932 1.06961 -0.0612893
0.223558 1.06939 -0.0610594
0.169127 1.07497 -0.0610612
0.168909 1.08496 -0.0616816
0.168676 1.09495 -0.0623374
0.19094 1.07473 -0.0615707
0.212735 1.07449 -0.061539
0.180001 1.07984 -0.0616494
0.201791 1.0796 -0.0618728
0.223435 1.07938 -0.0617019
0.190772 1.08472 -0.062172
0.212605 1.08448 -0.0621618
0.179821 1.08984 -0.0622379
0.201648 1.08959 -0.062462
0.223334 1.08937 -0.0623099
0.190576 1.09471 -0.0628496
0.212492 1.09447 -0.0627375
0.179603 1.09983 -0.062893
0.201497 1.09958 -0.0630677
0.223211 1.09936 -0.0629404
0.348235 0.958708 -0.0550144
0.317682 0.963847 -0.0550629
0.338029 0.963744 -0.0553421
0.358378 0.963666 -0.0553474
0.287042 0.959035 -0.0545061
0.256046 0.964243 -0.0545549
0.276759 0.964098 -0.0546538
0.297264 0.963969 -0.0548231
0.338061 0.953763 -0.0547299
0.358406 0.953686 -0.0547248
0.307518 0.958913 -0.054623
0.327881 0.958802 -0.054917
0.235281 0.964406 -0.0542216
0.276828 0.954115 -0.0540303
0.297317 0.953987 -0.0542087
0.245776 0.959329 -0.054087
0.266483 0.959176 -0.0542625
0.338097 0.943778 -0.054123
0.358436 0.943702 -0.0541087
0.327921 0.948822 -0.0542812
0.348264 0.948733 -0.0543956
0.317726 0.953869 -0.0544505
0.235384 0.954422 -0.0536597
0.26656 0.949193 -0.0536521
0.287114 0.949057 -0.0538795
0.256142 0.954263 -0.0539673
0.297369 0.944 -0.0536151
0.327949 0.938838 -0.0536628
0.348289 0.93875 -0.0537803
0.317769 0.943884 -0.0538359
0.307575 0.948935 -0.0540132
0.378636 0.963594 -0.0555524
0.398892 0.963541 -0.0555041
0.41913 0.963499 -0.0555963
0.439394 0.96347 -0.0554878
0.459615 0.963443 -0.0556253
0.479822 0.963437 -0.0554593
0.368488 0.958635 -0.0551498
0.388828 0.958577 -0.055202
0.409005 0.958529 -0.0552358
0.429259 0.958496 -0.0551778
0.449511 0.958464 -0.0552535
0.469718 0.958451 -0.0551985
0.489908 0.958445 -0.0551398
0.368539 0.948657 -0.0545275
0.388858 0.948599 -0.0545693
0.409029 0.948551 -0.0545921
0.37869 0.953619 -0.0549425
0.398929 0.953567 -0.0548749
0.419149 0.953525 -0.0549616
0.449518 0.948487 -0.0546067
0.46972 0.948473 -0.0545504
0.439406 0.953496 -0.05485
0.459614 0.95347 -0.0549831
0.47981 0.953464 -0.0548148
0.378728 0.943636 -0.0543311
0.398953 0.943584 -0.0542515
0.419167 0.943543 -0.0543335
0.429274 0.948523 -0.0545314
0.439418 0.943514 -0.0542186
0.459618 0.943488 -0.0543519
0.479808 0.943482 -0.054182
0.489888 0.948472 -0.0544932
0.378764 0.933655 -0.053713
0.419185 0.933563 -0.0536952
0.40906 0.938573 -0.0539737
0.429288 0.938542 -0.053904
0.368606 0.938679 -0.0539325
0.388904 0.938621 -0.0539648
0.45962 0.933508 -0.0537122
0.449522 0.93851 -0.0539799
0.469711 0.938496 -0.0539208
0.489884 0.938491 -0.0538624
0.286975 0.969023 -0.0551157
0.24568 0.969317 -0.0546941
0.266405 0.969165 -0.0548594
0.255957 0.974231 -0.0551468
0.276682 0.974085 -0.0552636
0.235158 0.974394 -0.0548442
0.245555 0.979298 -0.0553064
0.266306 0.979146 -0.0554678
0.286905 0.979009 -0.0557415
0.255853 0.984214 -0.0557545
0.276596 0.984068 -0.0558663
0.235024 0.984378 -0.0554357
0.28683 0.988987 -0.0563464
0.245455 0.989282 -0.0559298
0.266225 0.98913 -0.0560776
0.234619 1.02433 -0.0580163
0.234735 1.01434 -0.0573337
0.234818 1.00435 -0.0566797
0.255764 0.994197 -0.0563599
0.276522 0.994051 -0.0564869
0.276439 1.00403 -0.0570965
0.266128 0.999113 -0.0566818
0.286761 0.998974 -0.0569643
0.255675 1.00418 -0.0569789
0.286684 1.00896 -0.0575887
0.245226 1.00925 -0.0571627
0.26605 1.0091 -0.0573009
0.255583 1.01416 -0.0575785
0.276378 1.01401 -0.0577199
0.26597 1.01908 -0.0579114
0.286628 1.01894 -0.0582213
0.276285 1.024 -0.0583519
0.286541 1.02892 -0.0588551
0.244986 1.02922 -0.0584389
0.265882 1.02906 -0.0585521
0.255481 1.02415 -0.0582334
0.245122 1.01923 -0.057824
0.245342 0.99927 -0.0565585
0.234911 0.994363 -0.0560574
0.327833 0.968784 -0.0555287
0.348199 0.968694 -0.0556282
0.307457 0.9689 -0.0552344
0.297054 0.993917 -0.056687
0.296996 1.0039 -0.0573151
0.29694 1.01388 -0.0579086
0.296872 1.02387 -0.0585552
0.33798 0.973724 -0.0559613
0.358339 0.973645 -0.0559759
0.297182 0.973951 -0.0554505
0.317621 0.973832 -0.0556942
0.29712 0.983938 -0.0560728
0.307385 0.97888 -0.0558651
0.327782 0.978768 -0.0561724
0.348153 0.978676 -0.0562714
0.317565 0.98381 -0.0563249
0.337937 0.983705 -0.0566019
0.358305 0.983626 -0.0566227
0.327728 0.988745 -0.0568085
0.348112 0.988652 -0.0569056
0.307321 0.988862 -0.0564969
0.337887 0.993686 -0.0572326
0.358266 0.993606 -0.0572594
0.327677 0.998731 -0.0574442
0.34807 0.998637 -0.0575388
0.317504 0.993795 -0.0569649
0.31745 1.00378 -0.0575843
0.337844 1.00367 -0.0578706
0.358231 1.00359 -0.0579017
0.307259 0.998848 -0.0571297
0.348031 1.00862 -0.0581757
0.32762 1.00871 -0.0580847
0.307197 1.00883 -0.0577496
0.337808 1.01365 -0.0585
0.358202 1.01356 -0.0585345
0.317405 1.01376 -0.0582116
0.327577 1.01869 -0.0587353
0.347993 1.0186 -0.0588294
0.307146 1.01881 -0.0583896
0.337755 1.02363 -0.0591721
0.358156 1.02355 -0.0592018
0.317341 1.02374 -0.0588795
0.327519 1.02867 -0.0593788
0.347946 1.02858 -0.0594739
0.307072 1.02879 -0.0590254
0.3377 1.03361 -0.0598313
0.358111 1.03353 -0.0598581
0.234502 1.03432 -0.0586844
0.255359 1.03413 -0.0588591
0.276206 1.03398 -0.0589905
0.27612 1.04396 -0.0596172
0.265784 1.03904 -0.0591942
0.286471 1.0389 -0.0595024
0.244887 1.0392 -0.0590707
0.234387 1.04431 -0.059357
0.286393 1.04888 -0.0601201
0.24475 1.04918 -0.059692
0.265704 1.04903 -0.0598325
0.255271 1.04411 -0.0594918
0.234267 1.05429 -0.0600174
0.276052 1.05395 -0.0602426
0.255164 1.05409 -0.0601097
0.233972 1.08427 -0.0619164
0.233888 1.09425 -0.0625291
0.24465 1.05917 -0.0603389
0.265607 1.05901 -0.0604651
0.286324 1.05887 -0.0607481
0.234155 1.06429 -0.0606547
0.234058 1.07427 -0.0612878
0.275966 1.06393 -0.0608685
0.255074 1.06408 -0.0607377
0.24456 1.06916 -0.0609747
0.286246 1.06885 -0.061363
0.26553 1.06899 -0.0610911
0.254975 1.07406 -0.0613022
0.275898 1.07392 -0.0614808
0.244463 1.07915 -0.0616184
0.265422 1.07897 -0.0617225
0.286175 1.07884 -0.0620129
0.275812 1.0839 -0.0621448
0.254882 1.08405 -0.0619456
0.244366 1.08914 -0.0622497
0.286096 1.08882 -0.0626429
0.265339 1.08896 -0.0623541
0.254759 1.09403 -0.0625918
0.275733 1.09388 -0.0627993
0.244269 1.09913 -0.0628943
0.265227 1.09894 -0.0629944
0.286019 1.09881 -0.0632804
0.296784 1.03385 -0.0591958
0.317267 1.03372 -0.0595352
0.307009 1.03877 -0.0596858
0.327466 1.03865 -0.0600443
0.347901 1.03856 -0.0601377
0.296722 1.04383 -0.0598302
0.296647 1.05381 -0.0604581
0.296582 1.0638 -0.0610922
[...]
POINT_DATA 21816
VECTORS alpha float
-2.72697e-07 2.00434e-05 -1.25241e-06
-3.10244e-07 2.02438e-05 -1.21729e-06
-2.75769e-07 2.00597e-05 -1.266e-06
8.34267e-07 -7.04004e-09 5.86324e-08
8.54754e-07 -6.7977e-09 5.6252e-08
-2.14384e-07 1.88367e-05 -1.20542e-06
-3.1682e-07 2.02609e-05 -1.22338e-06
8.17074e-07 -6.83969e-09 6.0277e-08
-3.18123e-07 2.02768e-05 -1.21727e-06
-2.64472e-07 2.00743e-05 -1.25483e-06
8.36952e-07 -6.59285e-09 5.76971e-08
-2.05552e-07 1.88516e-05 -1.21626e-06
8.7052e-07 -6.39504e-09 4.10486e-08
8.3874e-07 -7.43736e-09 3.1285e-08
9.2623e-07 -8.54268e-09 2.73905e-08
9.08487e-07 -8.29953e-09 2.84276e-08
-3.75312e-07 1.9143e-05 -1.16195e-06
8.91256e-07 -8.08554e-09 2.97671e-08
8.73621e-07 -7.86027e-09 3.08574e-08
-3.69721e-07 1.91609e-05 -1.16657e-06
8.80099e-07 -7.91098e-09 -2.11053e-08
-3.50643e-07 1.91774e-05 -1.1576e-06
8.56904e-07 -7.66652e-09 3.13111e-08
8.63385e-07 -7.69893e-09 -1.92628e-08
-3.55269e-07 1.91947e-05 -1.18646e-06
-3.24741e-07 1.92112e-05 -1.15578e-06
8.47257e-07 -7.4884e-09 -1.62607e-08
8.30833e-07 -7.27213e-09 -1.41113e-08
-3.25927e-07 1.92273e-05 -1.11655e-06
-4.29864e-07 1.72579e-05 -1.00231e-06
8.4894e-07 -7.21066e-09 5.7409e-08
8.70106e-07 -6.98247e-09 5.61041e-08
8.8578e-07 -6.56148e-09 4.03126e-08
8.25623e-07 -7.27931e-09 3.29335e-08
-2.64373e-07 2.00261e-05 -1.24895e-06
-2.98609e-07 2.02264e-05 -1.2184e-06
-2.05453e-07 1.88204e-05 -1.21017e-06
8.63788e-07 -7.37709e-09 5.53448e-08
8.85558e-07 -7.15191e-09 5.60383e-08
9.01248e-07 -6.73363e-09 4.09059e-08
-2.66766e-07 2.0009e-05 -1.24272e-06
-2.97234e-07 2.02104e-05 -1.23966e-06
-2.00109e-07 1.8805e-05 -1.19826e-06
8.83248e-07 -7.62134e-09 5.55667e-08
9.05182e-07 -7.38214e-09 5.70745e-08
9.20252e-07 -6.93154e-09 4.07818e-08
-2.65031e-07 1.9991e-05 -1.25086e-06
-2.96288e-07 2.01924e-05 -1.26487e-06
-1.94362e-07 1.8788e-05 -1.20018e-06
9.23214e-07 -7.58289e-09 5.71533e-08
9.01257e-07 -7.8428e-09 5.64499e-08
9.20148e-07 -8.08011e-09 5.43681e-08
-2.5884e-07 1.99736e-05 -1.2442e-06
9.42763e-07 -7.83311e-09 5.71389e-08
-1.84896e-07 1.87718e-05 -1.20483e-06
9.57348e-07 -7.34208e-09 4.06648e-08
-2.78411e-07 2.01563e-05 -1.24121e-06
-2.91944e-07 2.01385e-05 -1.24407e-06
-2.65868e-07 1.99556e-05 -1.25554e-06
-1.88971e-07 1.87548e-05 -1.21764e-06
9.39031e-07 -8.31726e-09 5.53605e-08
9.61043e-07 -8.04968e-09 5.82364e-08
-2.65989e-07 1.99374e-05 -1.26046e-06
-1.96286e-07 1.87383e-05 -1.22814e-06
9.8065e-07 -8.27458e-09 5.80674e-08
9.59442e-07 -8.57164e-09 5.64696e-08
9.95152e-07 -7.74828e-09 4.28938e-08
9.75209e-07 -7.54172e-09 4.20529e-08
-2.65181e-07 2.0174e-05 -1.23499e-06
9.38213e-07 -7.12771e-09 4.14072e-08
-3.80786e-07 1.91253e-05 -1.13455e-06
-4.24709e-07 1.72416e-05 -9.91643e-07
9.42799e-07 -8.77495e-09 2.66891e-08
8.95211e-07 -8.13946e-09 -2.2883e-08
-3.82437e-07 1.91068e-05 -1.14635e-06
-4.28486e-07 1.72249e-05 -1.00782e-06
9.60491e-07 -9.02057e-09 2.59427e-08
9.11551e-07 -8.37265e-09 -2.51452e-08
-3.80829e-07 1.90869e-05 -1.1364e-06
9.85215e-07 -9.36298e-09 2.6334e-08
9.34801e-07 -8.67876e-09 -2.75179e-08
-3.80903e-07 1.90681e-05 -1.13192e-06
1.00386e-06 -9.62504e-09 2.68503e-08
-4.0997e-07 1.90491e-05 -1.16048e-06
9.50961e-07 -8.89065e-09 -3.06988e-08
1.02588e-06 -9.93393e-09 2.57576e-08
9.71906e-07 -9.17896e-09 -3.26895e-08
-4.3887e-07 1.90299e-05 -1.1918e-06
1.0447e-06 -1.023e-08 2.54681e-08
9.88082e-07 -9.41142e-09 -3.73602e-08
-4.71941e-07 1.90109e-05 -1.22592e-06
1.06524e-06 -1.05233e-08 2.66142e-08
1.00878e-06 -9.6972e-09 -3.89104e-08
-4.47407e-07 1.71328e-05 -1.01233e-06
-4.35877e-07 1.71528e-05 -9.6511e-07
-4.14273e-07 1.71708e-05 -9.47514e-07
-4.02756e-07 1.7189e-05 -9.26054e-07
9.26487e-07 -8.02953e-09 -1.29074e-07
-4.08103e-07 1.72058e-05 -9.58263e-07
9.07536e-07 -7.77125e-09 -1.27163e-07
8.94567e-07 -7.64216e-09 -1.19116e-07
-2.8312e-07 2.01195e-05 -1.23914e-06
-2.56737e-07 1.99191e-05 -1.24187e-06
-1.88235e-07 1.87205e-05 -1.23452e-06
9.76984e-07 -8.78707e-09 5.48497e-08
9.98443e-07 -8.49356e-09 5.8587e-08
1.0126e-06 -7.94305e-09 4.30358e-08
-2.95532e-07 2.01008e-05 -1.2411e-06
-2.39384e-07 1.98994e-05 -1.23593e-06
-1.88527e-07 1.87029e-05 -1.24352e-06
1.01718e-06 -8.73308e-09 5.79185e-08
9.9485e-07 -9.03941e-09 5.31388e-08
1.03074e-06 -8.18546e-09 4.28238e-08
-3.17295e-07 2.00811e-05 -1.23849e-06
-2.34509e-07 1.988e-05 -1.24523e-06
1.0412e-06 -9.0279e-09 5.80321e-08
1.05484e-06 -8.4258e-09 4.37173e-08
-1.87253e-07 1.86841e-05 -1.2346e-06
1.01939e-06 -9.3217e-09 5.36128e-08
-2.49923e-07 1.98615e-05 -1.26153e-06
-1.91037e-07 1.86655e-05 -1.23025e-06
-3.31437e-07 2.00627e-05 -1.27689e-06
1.03774e-06 -9.59007e-09 5.41549e-08
1.05979e-06 -9.27274e-09 5.80144e-08
1.07297e-06 -8.6689e-09 4.38613e-08
-3.64636e-07 2.0043e-05 -1.3077e-06
-3.80317e-07 2.00229e-05 -1.3278e-06
-3.85644e-07 2.00026e-05 -1.3244e-06
-2.6139e-07 1.98415e-05 -1.27359e-06
-1.94833e-07 1.86466e-05 -1.219e-06
1.06086e-06 -9.87595e-09 5.51534e-08
1.08268e-06 -9.58196e-09 5.7742e-08
1.09605e-06 -8.89482e-09 4.45885e-08
-2.67445e-07 1.98216e-05 -1.2847e-06
-2.03946e-07 1.86275e-05 -1.21848e-06
1.08021e-06 -1.01775e-08 5.49817e-08
1.103e-06 -9.87673e-09 5.74441e-08
1.1162e-06 -9.18006e-09 4.43063e-08
-2.83227e-07 1.98017e-05 -1.27259e-06
-2.12756e-07 1.86081e-05 -1.20173e-06
1.10025e-06 -1.04728e-08 5.63476e-08
1.12321e-06 -1.01729e-08 5.69042e-08
1.13621e-06 -9.41357e-09 4.42052e-08
9.59591e-07 -2.67721e-09 1.99509e-08
-3.19959e-08 9.99291e-06 -6.72356e-07
-3.03054e-08 8.71382e-06 -5.87998e-07
-2.33786e-08 7.55323e-06 -5.12982e-07
9.16046e-07 -4.52874e-09 1.98666e-08
-1.00497e-07 1.5051e-05 -9.79535e-07
-6.78909e-08 1.31459e-05 -8.66087e-07
-4.63127e-08 1.14548e-05 -7.71931e-07
-3.04203e-08 8.72194e-06 -5.89883e-07
-2.26737e-08 7.56037e-06 -5.14803e-07
9.31427e-07 -3.90363e-09 1.70689e-08
9.4652e-07 -3.24447e-09 2.01248e-08
-1.35718e-07 1.70393e-05 -1.1059e-06
-6.91773e-08 1.31574e-05 -8.71146e-07
-4.69622e-08 1.14651e-05 -7.72981e-07
8.84564e-07 -5.76178e-09 3.13846e-08
8.99174e-07 -5.16563e-09 2.47078e-08
-2.91908e-08 8.72945e-06 -5.91818e-07
-2.0874e-08 7.56704e-06 -5.15899e-07
9.26467e-07 -3.1255e-09 2.00919e-08
9.39317e-07 -2.59835e-09 1.98846e-08
-3.07e-08 1.00018e-05 -6.74691e-07
-1.40396e-07 1.70534e-05 -1.1084e-06
8.80146e-07 -4.99757e-09 2.50774e-08
8.96481e-07 -4.38748e-09 2.00989e-08
-1.00229e-07 1.50634e-05 -9.81678e-07
-4.51451e-08 1.14747e-05 -7.72004e-07
9.08792e-07 -3.01073e-09 2.00585e-08
9.214e-07 -2.50779e-09 1.98515e-08
-2.94065e-08 1.00103e-05 -6.76199e-07
9.11419e-07 -3.75758e-09 1.76307e-08
-5.51146e-09 6.45491e-06 -4.42471e-07
-3.31958e-09 5.37896e-06 -3.7158e-07
-7.41591e-09 4.30668e-06 -2.99192e-07
-1.50539e-09 3.232e-06 -2.25474e-07
-2.42046e-09 2.155e-06 -1.50251e-07
-5.53939e-10 1.07744e-06 -7.51207e-08
9.71142e-07 -2.22222e-09 1.60501e-08
9.79003e-07 -1.64798e-09 1.42021e-08
9.8796e-07 -1.34823e-09 1.25824e-08
9.95777e-07 -1.21965e-09 8.64184e-09
1.00108e-06 -5.25066e-10 1.0475e-08
1.0047e-06 -2.94479e-10 8.19847e-09
1.0057e-06 -2.26715e-10 -2.41683e-09
9.50367e-07 -2.11689e-09 1.6311e-08
9.5825e-07 -1.57516e-09 1.4493e-08
9.67008e-07 -1.2879e-09 1.26674e-08
-5.23201e-09 6.46088e-06 -4.4414e-07
-3.17157e-09 5.38393e-06 -3.72884e-07
-7.20058e-09 4.31067e-06 -3.00611e-07
9.79851e-07 -4.98914e-10 1.0344e-08
9.83412e-07 -2.81329e-10 8.12386e-09
-1.097e-09 3.23502e-06 -2.26183e-07
-2.17937e-09 2.15702e-06 -1.50523e-07
-4.1584e-10 1.07845e-06 -7.52408e-08
-5.16979e-09 6.46663e-06 -4.4373e-07
-3.00021e-09 5.38873e-06 -3.73292e-07
-6.92106e-09 4.31452e-06 -3.01061e-07
9.74312e-07 -1.18372e-09 8.76898e-09
-8.85792e-10 3.23792e-06 -2.26435e-07
-1.98985e-09 2.15896e-06 -1.50567e-07
-2.37229e-10 1.07942e-06 -7.52408e-08
9.84117e-07 -2.40298e-10 -2.63155e-09
-4.88549e-09 6.47246e-06 -4.41506e-07
-6.6623e-09 4.31839e-06 -3.00002e-07
9.4755e-07 -1.22442e-09 1.29849e-08
9.54946e-07 -1.14419e-09 8.73711e-09
9.3136e-07 -2.00453e-09 1.6941e-08
9.39108e-07 -1.49337e-09 1.50542e-08
-1.96235e-09 2.16091e-06 -1.49849e-07
9.60022e-07 -4.74084e-10 1.03974e-08
9.63521e-07 -2.75286e-10 8.15163e-09
9.64493e-07 -2.39368e-10 -2.62991e-09
9.32309e-07 -4.66586e-09 1.97829e-08
9.00842e-07 -5.92926e-09 3.13333e-08
9.15154e-07 -5.31778e-09 2.42856e-08
-9.51908e-08 1.5038e-05 -9.79888e-07
-6.41911e-08 1.31338e-05 -8.6406e-07
-1.3105e-07 1.70244e-05 -1.11202e-06
9.17222e-07 -6.08766e-09 3.11541e-08
9.31422e-07 -5.46128e-09 2.41458e-08
9.48673e-07 -4.79384e-09 2.01289e-08
-9.09168e-08 1.50249e-05 -9.82484e-07
-6.18678e-08 1.31222e-05 -8.63723e-07
-1.24741e-07 1.70101e-05 -1.10987e-06
9.68601e-07 -4.92814e-09 2.02095e-08
9.37179e-07 -6.28394e-09 3.14311e-08
9.51221e-07 -5.63026e-09 2.43304e-08
-1.12364e-07 1.69482e-05 -1.12736e-06
-1.07486e-07 1.69634e-05 -1.12419e-06
-1.06803e-07 1.69792e-05 -1.11727e-06
-8.69134e-08 1.50105e-05 -9.87658e-07
-5.76414e-08 1.31093e-05 -8.70456e-07
-5.80674e-08 1.30978e-05 -8.71228e-07
9.69785e-07 -5.78082e-09 2.42134e-08
9.87059e-07 -5.06212e-09 2.06648e-08
-8.41665e-08 1.49967e-05 -9.86356e-07
1.00763e-06 -5.20704e-09 2.03485e-08
9.75926e-07 -6.67568e-09 3.11282e-08
9.89955e-07 -5.9553e-09 2.42111e-08
-8.26895e-08 1.49829e-05 -9.86758e-07
-5.35001e-08 1.30849e-05 -8.72455e-07
1.00745e-06 -6.11343e-09 2.41201e-08
1.02476e-06 -5.34631e-09 2.05911e-08
-5.4339e-08 1.30727e-05 -8.7767e-07
1.04602e-06 -5.47637e-09 2.14281e-08
1.01516e-06 -7.0431e-09 3.24806e-08
1.02842e-06 -6.2722e-09 2.5003e-08
-8.29531e-08 1.49685e-05 -9.93048e-07
9.93906e-07 -6.85028e-09 3.20096e-08
9.55628e-07 -6.46762e-09 3.18298e-08
-1.16759e-07 1.69944e-05 -1.11367e-06
9.63441e-07 -3.3432e-09 1.99518e-08
9.76454e-07 -2.76848e-09 1.98325e-08
9.48023e-07 -4.04191e-09 1.65599e-08
-3.84526e-08 1.14225e-05 -7.75469e-07
-3.63466e-08 1.14117e-05 -7.7005e-07
-3.50004e-08 1.14005e-05 -7.68884e-07
-3.51049e-08 1.13889e-05 -7.74361e-07
-2.91209e-08 8.70569e-06 -5.88951e-07
-2.29518e-08 7.54605e-06 -5.13848e-07
-4.41817e-08 1.14446e-05 -7.74958e-07
-2.8622e-08 9.98346e-06 -6.73624e-07
-4.01257e-08 1.14336e-05 -7.72627e-07
9.65189e-07 -4.16719e-09 1.63618e-08
9.8048e-07 -3.45024e-09 1.99194e-08
9.93749e-07 -2.86525e-09 1.97432e-08
-2.56852e-08 9.97392e-06 -6.77519e-07
-2.46917e-08 8.69702e-06 -5.92487e-07
-2.03724e-08 7.53848e-06 -5.15077e-07
1.00089e-06 -3.55314e-09 1.97089e-08
1.01418e-06 -2.94654e-09 1.97292e-08
9.8543e-07 -4.31282e-09 1.62183e-08
-2.38703e-08 8.68884e-06 -5.94462e-07
-2.0474e-08 7.53124e-06 -5.17102e-07
1.0198e-06 -3.66638e-09 1.96071e-08
1.0332e-06 -3.04019e-09 1.97748e-08
-2.43819e-08 9.9642e-06 -6.82405e-07
-2.74617e-08 9.95494e-06 -6.828e-07
-2.41319e-08 8.68046e-06 -5.95545e-07
-2.22116e-08 7.52375e-06 -5.19462e-07
1.0044e-06 -4.45143e-09 1.6234e-08
1.05469e-06 -3.12384e-09 1.98478e-08
1.04126e-06 -3.76922e-09 1.95465e-08
1.02564e-06 -4.60739e-09 1.55583e-08
-2.21992e-08 8.67172e-06 -5.98818e-07
-2.08734e-08 7.51615e-06 -5.19904e-07
-2.25116e-08 9.9448e-06 -6.84343e-07
1.0588e-06 -3.8794e-09 1.94731e-08
1.07231e-06 -3.20649e-09 2.02869e-08
1.04322e-06 -4.74329e-09 1.5506e-08
-2.18718e-08 8.66274e-06 -6.02945e-07
-2.09068e-08 7.50823e-06 -5.23444e-07
-2.27336e-08 9.93452e-06 -6.90749e-07
1.08093e-06 -3.97268e-09 1.99864e-08
1.09464e-06 -3.28311e-09 2.11383e-08
1.06545e-06 -4.87783e-09 1.61392e-08
-2.17733e-08 8.65392e-06 -6.02932e-07
-2.13593e-08 7.50046e-06 -5.23572e-07
-1.19841e-07 1.69326e-05 -1.12393e-06
-8.16833e-08 1.49542e-05 -9.95477e-07
-4.96707e-08 1.30596e-05 -8.82026e-07
-4.70836e-08 1.30464e-05 -8.81516e-07
1.04756e-06 -6.41887e-09 2.52966e-08
1.06521e-06 -5.61085e-09 2.21957e-08
1.03368e-06 -7.24588e-09 3.2603e-08
-1.2811e-07 1.69166e-05 -1.14012e-06
1.08474e-06 -5.75598e-09 2.26792e-08
1.0533e-06 -7.466e-09 3.26159e-08
1.06661e-06 -6.60513e-09 2.54707e-08
-8.08371e-08 1.49395e-05 -9.94437e-07
-1.27124e-07 1.68994e-05 -1.13313e-06
-4.48192e-08 1.30327e-05 -8.8601e-07
-7.83064e-08 1.49243e-05 -9.93904e-07
-1.37304e-07 1.68478e-05 -1.12337e-06
-1.37612e-07 1.68296e-05 -1.12668e-06
1.07654e-06 -7.69813e-09 3.33803e-08
1.09085e-06 -6.77117e-09 2.58514e-08
1.1083e-06 -5.91899e-09 2.27728e-08
-1.34968e-07 1.68827e-05 -1.12874e-06
-1.28813e-07 1.68657e-05 -1.12226e-06
-4.26875e-08 1.30188e-05 -8.85597e-07
-7.59946e-08 1.49083e-05 -9.93034e-07
1.09423e-06 -7.90263e-09 3.44049e-08
1.12801e-06 -6.05823e-09 2.3001e-08
1.11016e-06 -6.95565e-09 2.59777e-08
-7.20676e-08 1.48932e-05 -9.92514e-07
-4.20238e-08 1.30058e-05 -8.85225e-07
1.11666e-06 -8.1314e-09 3.49482e-08
1.13418e-06 -7.13962e-09 2.65025e-08
1.15122e-06 -6.23637e-09 2.34954e-08
-4.45651e-08 1.29914e-05 -8.89146e-07
-7.43704e-08 1.48774e-05 -9.9259e-07
1.13598e-06 -8.32601e-09 3.49328e-08
1.17191e-06 -6.38204e-09 2.39052e-08
1.1544e-06 -7.34522e-09 2.65133e-08
-7.50292e-08 1.48613e-05 -9.92795e-07
-4.79976e-08 1.29772e-05 -8.93127e-07
1.15536e-06 -8.55195e-09 3.49547e-08
1.17549e-06 -7.51964e-09 2.69908e-08
1.19242e-06 -6.53427e-09 2.44062e-08
-3.57133e-08 1.13776e-05 -7.79935e-07
-2.25991e-08 9.92446e-06 -6.91414e-07
1.08506e-06 -4.98753e-09 1.70833e-08
1.10127e-06 -4.08546e-09 2.02684e-08
1.11533e-06 -3.38706e-09 2.13441e-08
-3.19518e-08 1.13654e-05 -7.7875e-07
-3.48321e-08 1.13536e-05 -7.81759e-07
-3.25445e-08 1.13407e-05 -7.8768e-07
-3.27866e-08 1.13289e-05 -7.90557e-07
-3.60396e-08 1.13163e-05 -7.89979e-07
-3.78275e-08 1.13033e-05 -7.89747e-07
-1.71685e-08 8.64455e-06 -6.00326e-07
-1.81342e-08 7.49217e-06 -5.23146e-07
-1.73225e-08 9.91371e-06 -6.9018e-07
1.1041e-06 -5.09427e-09 1.78631e-08
1.13582e-06 -3.47976e-09 2.14567e-08
1.12155e-06 -4.19912e-09 2.06695e-08
-1.89908e-08 9.90333e-06 -6.88312e-07
-1.74419e-08 8.63506e-06 -6.0032e-07
-1.87989e-08 7.48388e-06 -5.22359e-07
1.12767e-06 -5.23496e-09 1.83661e-08
1.1459e-06 -4.34084e-09 2.05614e-08
1.16e-06 -3.59896e-09 2.16833e-08
-1.68538e-08 8.62541e-06 -6.03182e-07
-1.80999e-08 7.47545e-06 -5.24571e-07
-1.55886e-08 9.89188e-06 -6.9316e-07
1.14754e-06 -5.33862e-09 1.93251e-08
1.18168e-06 -3.69183e-09 2.20048e-08
1.167e-06 -4.46643e-09 2.09071e-08
-1.44706e-08 9.88147e-06 -6.95281e-07
-1.46531e-08 8.61578e-06 -6.06036e-07
-1.63827e-08 7.46705e-06 -5.25824e-07
1.17097e-06 -5.48246e-09 2.01171e-08
1.19118e-06 -4.59361e-09 2.12896e-08
1.20563e-06 -3.80441e-09 2.24416e-08
-1.45244e-08 8.60608e-06 -6.0674e-07
-1.70542e-08 7.45854e-06 -5.26357e-07
-1.63394e-08 9.87053e-06 -6.98267e-07
1.19197e-06 -5.5894e-09 2.09334e-08
1.21275e-06 -4.74596e-09 2.15365e-08
1.22742e-06 -3.93922e-09 2.24044e-08
-1.66355e-08 9.85901e-06 -6.97364e-07
-1.74935e-08 8.59588e-06 -6.06131e-07
-1.99664e-08 7.4496e-06 -5.25742e-07
1.21299e-06 -5.703e-09 2.21901e-08
1.23473e-06 -4.86015e-09 2.1929e-08
1.24959e-06 -4.02869e-09 2.2978e-08
9.88555e-07 -2.31748e-09 1.58686e-08
9.96372e-07 -1.71466e-09 1.37702e-08
1.00554e-06 -1.40325e-09 1.24392e-08
1.01354e-06 -1.2588e-09 8.5714e-09
-3.0784e-09 6.44844e-06 -4.44272e-07
-1.8547e-09 5.3735e-06 -3.73266e-07
-6.57511e-09 4.30232e-06 -2.99795e-07
1.0068e-06 -2.41454e-09 1.54046e-08
1.01456e-06 -1.77631e-09 1.33729e-08
1.02383e-06 -1.45216e-09 1.21268e-08
1.032e-06 -1.29808e-09 8.43186e-09
-2.51428e-09 6.44221e-06 -4.42964e-07
-1.33753e-09 5.36831e-06 -3.73506e-07
-5.71064e-09 4.29809e-06 -2.99923e-07
1.02745e-06 -2.49817e-09 1.53121e-08
1.03506e-06 -1.82999e-09 1.33406e-08
1.04436e-06 -1.49875e-09 1.19582e-08
1.05265e-06 -1.34243e-09 8.41952e-09
1.04658e-06 -2.53722e-09 1.5885e-08
1.05487e-06 -1.89478e-09 1.28588e-08
1.0642e-06 -1.54591e-09 1.1514e-08
1.07263e-06 -1.37614e-09 8.37829e-09
-2.20585e-09 6.43568e-06 -4.44382e-07
-4.82855e-10 5.36284e-06 -3.75355e-07
-5.11703e-09 4.29369e-06 -3.00883e-07
-5.25654e-09 4.28954e-06 -3.00052e-07
-3.29178e-09 6.42922e-06 -4.45114e-07
-6.29005e-10 5.35749e-06 -3.75537e-07
1.06783e-06 -2.59341e-09 1.63157e-08
1.08541e-06 -2.66643e-09 1.67808e-08
1.10774e-06 -2.71907e-09 1.77551e-08
1.07672e-06 -1.95356e-09 1.27338e-08
1.08617e-06 -1.5951e-09 1.13282e-08
1.09481e-06 -1.42564e-09 8.34437e-09
-2.18214e-09 6.42262e-06 -4.45215e-07
-4.42574e-09 4.2849e-06 -3.01143e-07
1.79182e-10 5.35197e-06 -3.74788e-07
1.0949e-06 -2.01219e-09 1.23363e-08
1.10431e-06 -1.63824e-09 1.10657e-08
1.11305e-06 -1.45511e-09 8.40303e-09
-2.35361e-09 6.41579e-06 -4.47098e-07
6.10905e-10 5.34629e-06 -3.76093e-07
-4.08035e-09 4.28035e-06 -3.01864e-07
1.11746e-06 -2.05672e-09 1.26398e-08
1.12692e-06 -1.6779e-09 1.11897e-08
1.13587e-06 -1.50257e-09 8.73075e-09
-2.26845e-09 6.40912e-06 -4.46815e-07
1.06529e-09 5.34073e-06 -3.75947e-07
-3.83897e-09 4.27588e-06 -3.01074e-07
1.01896e-06 -5.4862e-10 1.05752e-08
1.02263e-06 -3.08667e-10 8.2177e-09
1.02365e-06 -2.31073e-10 -2.27054e-09
-8.40223e-10 3.22872e-06 -2.2593e-07
-2.04216e-09 2.15281e-06 -1.50554e-07
-4.76136e-10 1.07634e-06 -7.52549e-08
1.0375e-06 -5.76157e-10 1.04655e-08
1.04119e-06 -3.19134e-10 8.24355e-09
1.04218e-06 -2.31178e-10 -2.3158e-09
-1.93529e-09 2.15069e-06 -1.50412e-07
-4.22877e-10 3.22541e-06 -2.26352e-07
-4.39092e-10 1.07524e-06 -7.51962e-08
1.05822e-06 -5.96864e-10 1.06198e-08
1.06195e-06 -3.33681e-10 8.3371e-09
1.06293e-06 -2.42336e-10 -2.44901e-09
1.07821e-06 -6.12652e-10 1.05847e-08
1.08194e-06 -3.3032e-10 8.47173e-09
1.08286e-06 -2.20953e-10 -2.31812e-09
-6.82911e-10 3.2222e-06 -2.27007e-07
-1.74274e-09 2.14849e-06 -1.50757e-07
-5.12571e-10 1.07417e-06 -7.53338e-08
-1.97077e-09 2.14639e-06 -1.50514e-07
-9.58031e-10 3.21895e-06 -2.26616e-07
-6.17108e-10 1.07308e-06 -7.52764e-08
1.10048e-06 -6.34232e-10 1.07121e-08
1.10426e-06 -3.46061e-10 8.49846e-09
1.1052e-06 -2.29565e-10 -2.53603e-09
-9.68693e-10 3.21559e-06 -2.27137e-07
-1.73785e-09 2.14407e-06 -1.51007e-07
-6.53618e-10 1.07196e-06 -7.54587e-08
1.11875e-06 -6.55905e-10 1.06992e-08
1.12253e-06 -3.5578e-10 8.55802e-09
1.12314e-06 -2.45209e-10 -2.64135e-09
-1.02573e-09 3.21216e-06 -2.27599e-07
-1.61595e-09 2.14178e-06 -1.51226e-07
-6.95553e-10 1.07081e-06 -7.55533e-08
1.14162e-06 -6.80672e-10 1.09265e-08
1.14546e-06 -3.75897e-10 8.82355e-09
1.14633e-06 -2.35607e-10 -2.55155e-09
-1.17364e-09 3.20878e-06 -2.27419e-07
-1.64429e-09 2.13952e-06 -1.51116e-07
-7.7705e-10 1.06969e-06 -7.54813e-08
1.57177e-14 1.11477e-10 -7.87173e-12
4.16567e-14 1.11714e-10 -7.90814e-12
-3.94966e-15 1.12273e-10 -7.87623e-12
5.67683e-15 1.11955e-10 -7.86567e-12
2.0953e-14 1.11669e-10 -7.84845e-12
1.12859e-06 -2.81252e-09 1.77099e-08
1.14887e-06 -1.72599e-09 1.0981e-08
1.13878e-06 -2.10958e-09 1.2609e-08
1.15775e-06 -1.55528e-09 8.78696e-09
-8.23467e-10 6.4019e-06 -4.47499e-07
2.28865e-09 5.33471e-06 -3.75035e-07
-2.85411e-09 4.27106e-06 -3.00385e-07
1.14907e-06 -2.87345e-09 1.81907e-08
1.17911e-06 -1.60037e-09 8.77297e-09
1.15992e-06 -2.16662e-09 1.21359e-08
1.16968e-06 -1.77612e-09 1.08833e-08
-2.5398e-09 6.39491e-06 -4.4813e-07
2.00936e-09 5.32896e-06 -3.73921e-07
-3.4055e-09 4.26643e-06 -3.00418e-07
1.17328e-06 -2.96091e-09 1.86477e-08
1.18442e-06 -2.22286e-09 1.18929e-08
1.19427e-06 -1.82904e-09 1.07252e-08
1.20389e-06 -1.64882e-09 8.62728e-09
-1.61142e-09 6.38739e-06 -4.49693e-07
3.12629e-09 5.32271e-06 -3.73574e-07
-2.87198e-09 4.2614e-06 -3.00576e-07
1.19516e-06 -3.01107e-09 1.94399e-08
1.21925e-06 -3.1129e-09 1.99035e-08
1.24175e-06 -3.1925e-09 2.02752e-08
1.26398e-06 -3.30939e-09 2.07875e-08
1.20696e-06 -2.27619e-09 1.17343e-08
1.21702e-06 -1.87895e-09 1.06368e-08
1.22682e-06 -1.6884e-09 8.5797e-09
-2.12473e-09 6.38041e-06 -4.50531e-07
3.5436e-09 5.31698e-06 -3.72621e-07
-2.86616e-09 4.2568e-06 -3.00092e-07
1.23106e-06 -2.33136e-09 1.1532e-08
1.24119e-06 -1.93009e-09 1.04552e-08
1.25112e-06 -1.7424e-09 8.33556e-09
-1.29853e-09 6.37275e-06 -4.5233e-07
4.33224e-09 5.31059e-06 -3.74388e-07
-2.58037e-09 4.25166e-06 -3.00637e-07
1.25406e-06 -2.4123e-09 1.07716e-08
1.26458e-06 -1.99643e-09 9.99762e-09
1.27479e-06 -1.77473e-09 8.19584e-09
-2.98438e-09 4.24652e-06 -3.00696e-07
-2.48799e-09 6.36503e-06 -4.52323e-07
3.41966e-09 5.30419e-06 -3.74509e-07
1.27623e-06 -2.47616e-09 1.0824e-08
1.28691e-06 -2.03677e-09 9.98277e-09
1.29748e-06 -1.82786e-09 8.38228e-09
1.164e-06 -7.0415e-10 1.1059e-08
1.16764e-06 -3.98676e-10 9.00105e-09
1.16854e-06 -2.5168e-10 -2.57853e-09
-6.76786e-10 3.20513e-06 -2.27281e-07