# vtk DataFile Version 3.0
vtk output
ASCII
DATASET POLYDATA
POINTS 14645 float
0.185825 0.729963 -0.0412761
0.196219 0.7349 -0.041245
0.18596 0.719976 -0.0406695
0.19635 0.724906 -0.0406127
0.206698 0.729831 -0.0405914
0.217016 0.734763 -0.0406786
0.258083 0.734592 -0.0407584
0.278402 0.734507 -0.0406224
0.298604 0.734433 -0.040632
0.288483 0.739463 -0.0409356
0.308688 0.739395 -0.0410058
0.227407 0.729708 -0.0401863
0.175843 0.735027 -0.0403123
0.237683 0.734654 -0.0404488
0.24796 0.729634 -0.0402602
0.268289 0.729553 -0.0403486
0.288524 0.729472 -0.0402814
0.308727 0.729404 -0.0403429
0.165561 0.730091 -0.0396932
0.186084 0.709983 -0.03999
0.196465 0.714918 -0.0399421
0.206809 0.719846 -0.0399333
0.17595 0.72503 -0.0397189
0.217114 0.724775 -0.0400629
0.237751 0.724665 -0.0398458
0.258144 0.724601 -0.0401295
0.278446 0.724516 -0.0399788
0.29864 0.724443 -0.0399813
0.155125 0.735151 -0.0395663
0.217197 0.714784 -0.0394506
0.227491 0.719724 -0.0395578
0.248016 0.719653 -0.0396626
0.258192 0.714609 -0.0394995
0.268334 0.719566 -0.0397121
0.288557 0.719486 -0.0396293
0.308751 0.719419 -0.0396931
0.155227 0.725158 -0.0390163
0.18621 0.699993 -0.0392931
0.196583 0.704923 -0.0392443
0.206917 0.709854 -0.0392952
0.165673 0.720108 -0.0391675
0.176049 0.715046 -0.0391341
0.237816 0.714682 -0.0392728
0.248066 0.709659 -0.0390786
0.268377 0.709566 -0.0390729
0.308777 0.709421 -0.039064
0.278476 0.714529 -0.0393339
0.298663 0.714456 -0.039348
0.144806 0.730208 -0.0386411
0.206998 0.699865 -0.0386345
0.217282 0.704795 -0.0388141
0.227573 0.709732 -0.0389484
0.237871 0.704691 -0.0386711
0.258236 0.704614 -0.0388643
0.278504 0.704533 -0.0386818
0.288585 0.709493 -0.0389776
0.298683 0.704459 -0.0387104
0.318858 0.73436 -0.0409544
0.31889 0.724367 -0.0402954
0.318903 0.714382 -0.0396339
0.328831 0.739314 -0.0413321
0.379471 0.734193 -0.0411423
0.349074 0.739267 -0.0412772
0.369242 0.739204 -0.0412811
0.389516 0.739171 -0.0413928
0.38953 0.729186 -0.0407298
0.33898 0.734305 -0.0410369
0.359184 0.734237 -0.0409209
0.399568 0.73417 -0.041
0.328908 0.729331 -0.0406973
0.339022 0.724312 -0.0403846
0.379493 0.724212 -0.0404842
0.39958 0.724182 -0.0403446
0.349128 0.729278 -0.0406231
0.369276 0.729224 -0.0406207
0.328951 0.719347 -0.0400545
0.349158 0.71929 -0.0399556
0.369297 0.719238 -0.0399517
0.389541 0.719208 -0.0400634
0.359228 0.724254 -0.0402649
0.339067 0.714333 -0.0397272
0.359241 0.71427 -0.0395909
0.3795 0.714233 -0.039823
0.399574 0.714204 -0.0396808
0.329007 0.709362 -0.0393841
0.349186 0.709299 -0.0392786
0.369307 0.709256 -0.0392799
0.3795 0.704244 -0.0391563
0.389533 0.709224 -0.0394103
0.31891 0.70439 -0.0389653
0.329039 0.699377 -0.0387056
0.389532 0.69924 -0.0387498
0.399559 0.704218 -0.0390326
0.339104 0.704348 -0.039041
0.359256 0.704288 -0.0389075
0.409597 0.739144 -0.041308
0.409598 0.729165 -0.0406409
0.4096 0.719181 -0.0399779
0.409581 0.709197 -0.039332
0.429747 0.73912 -0.0413753
0.449834 0.739112 -0.0414054
0.469924 0.739111 -0.041336
0.490007 0.739116 -0.0413528
0.449827 0.729128 -0.0407534
0.48999 0.729131 -0.0407101
0.419668 0.734144 -0.0410506
0.43978 0.734127 -0.041148
0.459867 0.734123 -0.0410371
0.479947 0.734124 -0.041016
0.419675 0.724157 -0.0404017
0.439774 0.724142 -0.0404996
0.459856 0.724137 -0.040392
0.479931 0.724138 -0.0403755
0.429739 0.729142 -0.0407268
0.469891 0.729131 -0.0406939
0.429733 0.719159 -0.0400673
0.449803 0.71915 -0.0400936
0.469875 0.719148 -0.0400367
0.489942 0.719153 -0.0400679
0.419681 0.71418 -0.0397344
0.439761 0.714165 -0.0398268
0.459829 0.71416 -0.03973
0.479891 0.714161 -0.0397185
0.439759 0.704176 -0.0391663
0.459821 0.70417 -0.0390783
0.479876 0.704172 -0.0390697
0.429734 0.70918 -0.0394026
0.449788 0.70917 -0.0394274
0.469847 0.709168 -0.0393817
0.4899 0.709171 -0.039421
0.500017 0.734132 -0.0410902
0.409574 0.699214 -0.038672
0.419694 0.704195 -0.0390697
0.429733 0.699198 -0.0387359
0.449781 0.699189 -0.0387572
0.469833 0.699186 -0.0387175
0.489881 0.699189 -0.0387608
0.509992 0.739116 -0.0413525
0.530076 0.739111 -0.0413357
0.550165 0.739112 -0.0414049
0.570253 0.73912 -0.0413749
0.51001 0.729132 -0.0407194
0.550173 0.729128 -0.0407632
0.520053 0.734124 -0.0410219
0.540133 0.734122 -0.0410443
0.56022 0.734127 -0.0411551
0.580331 0.734144 -0.0410598
0.499999 0.724147 -0.0404628
0.520069 0.724139 -0.0403889
0.540144 0.724137 -0.0404087
0.560226 0.724142 -0.0405145
0.580324 0.724157 -0.0404216
0.530108 0.729131 -0.0407041
0.570261 0.729142 -0.0407397
0.510058 0.719153 -0.0400799
0.530124 0.719149 -0.0400506
0.550197 0.719151 -0.0401062
0.570267 0.71916 -0.0400832
0.500051 0.71417 -0.039815
0.520109 0.714162 -0.0397304
0.54017 0.714161 -0.0397453
0.560239 0.714166 -0.0398398
0.58032 0.71418 -0.0397522
0.500071 0.70418 -0.0391722
0.520124 0.704172 -0.0390805
0.540179 0.704171 -0.0390926
0.560242 0.704176 -0.0391777
0.580311 0.704189 -0.039094
0.5101 0.709172 -0.0394318
0.530153 0.709168 -0.0393943
0.550212 0.709171 -0.0394383
0.570266 0.70918 -0.0394167
0.590403 0.739145 -0.0413067
0.590402 0.729165 -0.0406397
0.590399 0.719181 -0.0399766
0.590418 0.709197 -0.0393307
0.510119 0.69919 -0.0387705
0.530167 0.699186 -0.0387292
0.55022 0.699189 -0.0387667
0.570267 0.699199 -0.0387484
0.590426 0.699214 -0.0386706
0.620529 0.734193 -0.0411417
0.610483 0.739171 -0.0413918
0.630758 0.739204 -0.0412803
0.650925 0.739267 -0.0412771
0.671168 0.739315 -0.0413248
0.61047 0.729186 -0.040729
0.600431 0.73417 -0.0409991
0.640816 0.734237 -0.0409206
0.661019 0.734306 -0.0410367
0.60042 0.724182 -0.0403436
0.620506 0.724212 -0.0404838
0.660978 0.724313 -0.0403844
0.630723 0.729223 -0.0406201
0.650872 0.729279 -0.0406231
0.671091 0.729332 -0.0406939
0.610458 0.719208 -0.0400627
0.630702 0.719238 -0.0399512
0.650841 0.71929 -0.0399555
0.640772 0.724254 -0.0402648
0.671048 0.719348 -0.0400532
0.600426 0.714204 -0.0396798
0.6205 0.714233 -0.0398225
0.640758 0.71427 -0.0395908
0.660932 0.714334 -0.0397269
0.620499 0.704244 -0.0391556
0.610466 0.709224 -0.0394095
0.630693 0.709255 -0.0392793
0.650813 0.7093 -0.0392786
0.670993 0.709363 -0.039383
0.681141 0.734361 -0.0409501
0.68111 0.724367 -0.0402944
0.681096 0.714382 -0.039633
0.610467 0.69924 -0.038749
0.60044 0.704218 -0.0390316
0.640743 0.704288 -0.0389074
0.660895 0.704348 -0.0390407
0.670961 0.699378 -0.0387046
0.681089 0.70439 -0.0389644
0.814175 0.729963 -0.0412776
0.80378 0.7349 -0.0412454
0.701395 0.734434 -0.0406294
0.721597 0.734508 -0.0406211
0.741917 0.734593 -0.0407581
0.691311 0.739395 -0.0410012
0.711516 0.739463 -0.040933
0.81404 0.719977 -0.040671
0.80365 0.724906 -0.0406133
0.793302 0.729831 -0.0405918
0.782984 0.734764 -0.040679
0.691273 0.729405 -0.0403408
0.711475 0.729472 -0.0402802
0.731711 0.729553 -0.0403482
0.75204 0.729634 -0.0402603
0.762316 0.734654 -0.0404489
0.772593 0.729708 -0.0401867
0.824156 0.735027 -0.0403133
0.701359 0.724443 -0.0399808
0.721554 0.724517 -0.0399787
0.741855 0.724602 -0.0401296
0.762248 0.724665 -0.039846
0.803534 0.714919 -0.0399428
0.813915 0.709983 -0.0399916
0.79319 0.719847 -0.0399339
0.782885 0.724776 -0.0400634
0.82405 0.725031 -0.0397199
0.834439 0.730091 -0.0396943
0.741807 0.714609 -0.0394995
0.691249 0.719419 -0.0396924
0.711443 0.719487 -0.039629
0.731665 0.719566 -0.0397121
0.751984 0.719653 -0.0396628
0.782803 0.714784 -0.0394512
0.772509 0.719725 -0.0395583
0.844874 0.735152 -0.0395674
0.691223 0.709422 -0.0390634
0.731622 0.709567 -0.0390729
0.751934 0.709659 -0.039079
0.701336 0.714456 -0.0393476
0.721523 0.71453 -0.0393338
0.762183 0.714682 -0.0392732
0.813789 0.699994 -0.0392947
0.793083 0.709854 -0.0392959
0.803417 0.704923 -0.039245
0.82395 0.715047 -0.0391351
0.834327 0.720108 -0.0391686
0.844772 0.725158 -0.0390175
0.701316 0.70446 -0.03871
0.721496 0.704533 -0.0386817
0.711414 0.709494 -0.0389773
0.741763 0.704614 -0.0388643
0.762128 0.704691 -0.0386715
0.793002 0.699865 -0.0386353
0.782718 0.704795 -0.0388148
0.772427 0.709733 -0.038949
0.855194 0.730208 -0.0386423
0.133106 0.835258 -0.0439027
0.133256 0.825269 -0.0432638
0.122635 0.840346 -0.0430026
0.133414 0.815265 -0.0426235
0.122825 0.83035 -0.0423179
0.133579 0.805262 -0.041943
0.123007 0.820361 -0.0416213
0.133693 0.795272 -0.0413527
0.133738 0.785264 -0.0409666
0.123196 0.810354 -0.0409166
0.133798 0.775264 -0.0405423
0.123375 0.800357 -0.0402661
0.133864 0.765259 -0.0401059
0.123459 0.79035 -0.0398761
0.134018 0.75526 -0.0395105
0.123488 0.780342 -0.0395959
0.113234 0.835368 -0.0393946
0.132934 0.845257 -0.0445409
0.113091 0.845352 -0.0399594
0.122433 0.850345 -0.0436559
0.132746 0.855252 -0.045194
0.112875 0.855335 -0.0406424
0.122233 0.86034 -0.0442633
0.132555 0.86524 -0.0457996
0.112661 0.86532 -0.0413039
0.122047 0.870333 -0.0448453
0.132384 0.875224 -0.046375
0.112459 0.875302 -0.0419737
0.121887 0.880324 -0.0453866
0.132262 0.885213 -0.0469054
0.112319 0.885283 -0.0425214
0.121766 0.89031 -0.0458869
0.132172 0.895196 -0.0473893
0.12169 0.900291 -0.046376
0.132065 0.905176 -0.0479358
0.121568 0.910265 -0.0469365
0.131931 0.915148 -0.0485251
0.121421 0.920242 -0.0475119
0.111966 0.915208 -0.0441259
0.112091 0.905238 -0.0435867
0.112204 0.895265 -0.0430409
0.101937 0.920294 -0.0419481
0.102106 0.910318 -0.0413588
0.102267 0.900344 -0.0407665
0.102443 0.890358 -0.0401748
0.102608 0.880367 -0.0396212
0.123519 0.770342 -0.0393191
0.102754 0.870379 -0.0390878
0.134184 0.745268 -0.0389224
0.123641 0.760339 -0.038821
0.113367 0.825389 -0.0388324
0.102889 0.86039 -0.0385345
0.0923418 0.915368 -0.0385583
0.131786 0.925127 -0.049083
0.111838 0.925174 -0.0446243
0.0921981 0.925352 -0.0390532
0.12126 0.930216 -0.0480745
0.101789 0.930259 -0.042457
0.111716 0.935138 -0.0451254
0.131636 0.935106 -0.0496942
0.0920516 0.935322 -0.0395784
0.121076 0.940199 -0.0486946
0.101606 0.940217 -0.043012
0.111578 0.945097 -0.0456354
0.13144 0.945088 -0.0503603
0.091776 0.945286 -0.0402697
0.101386 0.950179 -0.0435765
0.111413 0.955086 -0.0461634
0.0915425 0.955268 -0.04088
0.101241 0.960165 -0.0441027
[...]
POINT_DATA 14645
VECTORS alpha float
2.05793e-06 -1.44885e-08 8.36383e-08
-1.56685e-07 1.87205e-05 -1.23284e-06
2.00953e-06 -1.37935e-08 8.52435e-08
-1.47259e-07 1.87665e-05 -1.26169e-06
2.13498e-06 -1.3604e-08 6.96061e-08
-9.69217e-08 1.75808e-05 -1.17255e-06
-5.69611e-08 1.3994e-05 -9.55801e-07
-2.87047e-08 1.2194e-05 -8.30213e-07
-1.32713e-08 1.05988e-05 -7.18587e-07
2.43595e-06 -8.51452e-09 4.58979e-09
2.49152e-06 -7.29392e-09 -1.79211e-09
2.20885e-06 -1.24118e-08 4.08706e-08
-1.69229e-07 1.88941e-05 -1.22008e-06
-4.89447e-08 1.5875e-05 -1.04942e-06
2.27087e-06 -1.05013e-08 1.92374e-08
2.32529e-06 -9.6649e-09 1.86218e-08
2.38069e-06 -8.26619e-09 5.7725e-09
2.43507e-06 -7.09573e-09 -5.31953e-10
1.95058e-06 -1.30974e-08 -9.45787e-09
1.96389e-06 -1.31466e-08 8.26701e-08
-1.37542e-07 1.88114e-05 -1.2742e-06
2.08447e-06 -1.30704e-08 6.71976e-08
-1.60124e-07 1.89417e-05 -1.22363e-06
-8.5051e-08 1.76231e-05 -1.17536e-06
-4.20963e-08 1.59159e-05 -1.05274e-06
-4.69268e-08 1.40301e-05 -9.58075e-07
-1.98445e-08 1.22267e-05 -8.31919e-07
-6.78054e-09 1.0628e-05 -7.20505e-07
-1.74358e-07 1.79189e-05 -1.1566e-06
-7.94264e-08 1.76668e-05 -1.18159e-06
2.15569e-06 -1.18877e-08 4.046e-08
2.21491e-06 -9.90609e-09 2.18758e-08
-4.22355e-08 1.40677e-05 -9.6306e-07
2.2703e-06 -9.25517e-09 2.0271e-08
2.32481e-06 -7.96338e-09 7.24315e-09
2.37826e-06 -6.83524e-09 9.39529e-10
-1.70813e-07 1.79665e-05 -1.16698e-06
1.91762e-06 -1.25902e-08 7.9568e-08
-1.33523e-07 1.8857e-05 -1.29953e-06
2.03707e-06 -1.25318e-08 6.54687e-08
1.90791e-06 -1.24396e-08 -8.01553e-10
-1.49606e-07 1.89871e-05 -1.22924e-06
-3.34987e-08 1.59551e-05 -1.06478e-06
2.16269e-06 -9.25494e-09 2.30148e-08
2.21855e-06 -8.79909e-09 2.15133e-08
2.32405e-06 -6.46736e-09 2.97418e-09
-1.31187e-08 1.2259e-05 -8.3977e-07
-6.97725e-10 1.06571e-05 -7.23387e-07
1.8652e-06 -1.22567e-08 -6.98088e-08
1.98857e-06 -1.20091e-08 6.30548e-08
-7.51539e-08 1.77087e-05 -1.19084e-06
2.10581e-06 -1.1334e-08 4.02519e-08
-3.37873e-08 1.59956e-05 -1.07234e-06
-3.74222e-08 1.41039e-05 -9.65514e-07
-1.3823e-08 1.22928e-05 -8.44204e-07
2.27155e-06 -7.67634e-09 9.05351e-09
-4.87506e-10 1.06874e-05 -7.23849e-07
-1.68196e-08 9.22595e-06 -6.49773e-07
-1.29191e-08 9.25317e-06 -6.50275e-07
-7.73339e-09 9.27907e-06 -6.52666e-07
2.55171e-06 -6.8611e-09 1.2595e-08
-5.30863e-09 5.94286e-06 -4.21567e-07
2.58573e-06 -5.4687e-09 7.85294e-09
2.6208e-06 -4.35114e-09 3.23612e-09
2.66314e-06 -3.94561e-09 1.81068e-08
2.60096e-06 -3.80418e-09 1.78001e-08
2.33525e-09 8.03536e-06 -5.70106e-07
6.00414e-09 6.96059e-06 -4.95343e-07
-3.85778e-09 4.94831e-06 -3.53071e-07
2.4913e-06 -6.39688e-09 1.49149e-08
3.83331e-09 8.0594e-06 -5.71096e-07
-4.10358e-09 5.96015e-06 -4.23922e-07
-3.06802e-09 4.96352e-06 -3.53704e-07
2.52461e-06 -5.27705e-09 9.51224e-09
2.55888e-06 -4.16637e-09 4.43629e-09
2.4322e-06 -5.85622e-09 1.55168e-08
2.46558e-06 -5.08547e-09 1.03762e-08
2.49907e-06 -3.94036e-09 4.85669e-09
2.53908e-06 -3.66954e-09 1.77939e-08
7.72461e-09 6.98061e-06 -4.97599e-07
4.4631e-09 8.0828e-06 -5.73683e-07
7.8786e-09 7.00206e-06 -4.98204e-07
-3.58926e-09 5.97789e-06 -4.25375e-07
-2.51098e-09 4.9784e-06 -3.55463e-07
2.37381e-06 -5.36995e-09 1.57607e-08
2.40729e-06 -4.95852e-09 1.05632e-08
2.44011e-06 -3.80253e-09 4.26206e-09
-4.48822e-09 5.9963e-06 -4.25312e-07
2.47928e-06 -3.6214e-09 1.68988e-08
-3.97412e-09 9.30493e-06 -6.54134e-07
2.3178e-06 -5.03669e-09 1.55062e-08
2.42178e-06 -3.46789e-09 1.66001e-08
-2.0565e-09 4.99299e-06 -3.57251e-07
3.39326e-09 8.10663e-06 -5.76793e-07
7.06265e-09 7.02275e-06 -5.00816e-07
2.6923e-06 -3.14591e-09 7.93746e-09
2.62843e-06 -3.10747e-09 7.58651e-09
2.56673e-06 -2.92602e-09 7.07168e-09
2.50638e-06 -2.92183e-09 5.52223e-09
2.71717e-06 -8.03375e-10 6.55747e-09
2.73671e-06 -5.68615e-10 1.53408e-08
2.74819e-06 2.95981e-10 3.5357e-09
2.75381e-06 1.16114e-09 -8.3155e-09
2.67227e-06 -5.80131e-10 1.44758e-08
2.68896e-06 1.07117e-09 -8.84413e-09
1.40098e-09 3.96001e-06 -2.84655e-07
3.27791e-10 2.97098e-06 -2.14225e-07
2.32051e-11 1.98047e-06 -1.4263e-07
-8.97422e-11 9.90002e-07 -7.1301e-08
1.87714e-09 3.97218e-06 -2.84672e-07
5.07155e-10 2.98008e-06 -2.14103e-07
2.67821e-10 1.98656e-06 -1.42535e-07
9.51119e-11 9.93058e-07 -7.12449e-08
2.65231e-06 -8.49636e-10 6.83175e-09
2.68254e-06 1.61996e-10 2.32427e-09
2.5902e-06 -8.76728e-10 7.33656e-09
2.60866e-06 -5.96181e-10 1.34648e-08
2.61965e-06 1.71598e-10 1.86347e-09
2.62509e-06 9.38604e-10 -1.01796e-08
2.0923e-09 3.98418e-06 -2.85534e-07
6.24192e-10 2.98908e-06 -2.14803e-07
3.95301e-10 1.99256e-06 -1.43041e-07
1.95955e-10 9.96069e-07 -7.14886e-08
5.63077e-10 2.99813e-06 -2.14737e-07
4.57815e-10 1.99861e-06 -1.429e-07
2.9955e-10 9.99099e-07 -7.14413e-08
2.52831e-06 -9.12721e-10 7.51288e-09
2.54627e-06 -6.21535e-10 1.22506e-08
2.55712e-06 1.12652e-10 1.1217e-09
2.56253e-06 8.32907e-10 -1.13321e-08
-3.62572e-16 9.05616e-11 -6.53754e-12
2.44838e-06 -2.81571e-09 5.14572e-09
2.14267e-09 3.99596e-06 -2.86151e-07
2.46948e-06 -9.32171e-10 7.63013e-09
2.48703e-06 -6.22537e-10 1.14889e-08
2.49774e-06 5.95567e-11 7.18755e-10
2.50311e-06 7.36616e-10 -1.16872e-08
2.75383e-06 -1.16446e-09 8.33552e-09
2.74821e-06 -3.05544e-10 -3.52649e-09
2.73674e-06 5.52957e-10 -1.53404e-08
2.7172e-06 7.82148e-10 -6.56426e-09
2.6889e-06 -1.11826e-09 8.88295e-09
2.67221e-06 5.35182e-10 -1.47012e-08
-8.15387e-11 -9.89805e-07 7.13635e-08
4.96582e-11 -1.98025e-06 1.42777e-07
3.94478e-10 -2.97075e-06 2.14479e-07
1.50399e-09 -3.95976e-06 2.8505e-07
-1.42469e-15 9.20679e-11 -6.62833e-12
7.5489e-11 -9.9286e-07 7.13954e-08
2.64806e-10 -1.98634e-06 1.42839e-07
6.22869e-10 -2.97986e-06 2.14695e-07
2.07588e-09 -3.97195e-06 2.85558e-07
2.6825e-06 -1.91367e-10 -2.61749e-09
2.65231e-06 8.17395e-10 -7.42132e-09
2.62498e-06 -9.97978e-10 1.01293e-08
2.61958e-06 -1.96211e-10 -2.30001e-09
2.60855e-06 5.51986e-10 -1.37056e-08
2.59019e-06 8.61509e-10 -7.98097e-09
-1.41253e-14 9.32107e-11 -6.70822e-12
1.73744e-10 -9.95882e-07 7.16065e-08
3.87584e-10 -1.99236e-06 1.43272e-07
7.05914e-10 -2.98889e-06 2.15322e-07
2.24593e-09 -3.984e-06 2.86317e-07
-3.05472e-14 9.4051e-11 -6.74259e-12
2.74697e-10 -9.98923e-07 7.15261e-08
4.4534e-10 -1.99844e-06 1.43058e-07
6.10711e-10 -2.99798e-06 2.15184e-07
2.29936e-09 -3.99617e-06 2.85938e-07
2.56245e-06 -8.8269e-10 1.12755e-08
2.55707e-06 -1.28562e-10 -1.55957e-09
2.54618e-06 5.74777e-10 -1.24601e-08
2.52831e-06 8.9414e-10 -8.11912e-09
2.69236e-06 3.10603e-09 -7.99328e-09
2.62848e-06 3.07927e-09 -7.66145e-09
2.56676e-06 2.90571e-09 -7.16571e-09
2.50641e-06 2.9011e-09 -5.61224e-09
2.50307e-06 -7.76932e-10 1.16215e-08
2.49776e-06 -6.6887e-11 -1.16185e-09
2.48704e-06 5.73808e-10 -1.16695e-08
2.4696e-06 9.10898e-10 -8.20067e-09
2.44856e-06 2.79527e-09 -5.23145e-09
-5.29599e-09 -5.94269e-06 4.21643e-07
2.66319e-06 3.91942e-09 -1.81497e-08
2.62084e-06 4.33835e-09 -3.28413e-09
2.58576e-06 5.47586e-09 -7.91423e-09
2.55182e-06 6.86289e-09 -1.29836e-08
2.601e-06 3.78555e-09 -1.78452e-08
-3.85577e-09 -4.94813e-06 3.53141e-07
6.03113e-09 -6.96042e-06 4.95373e-07
2.38388e-09 -8.03521e-06 5.7015e-07
-3.06417e-09 -4.96335e-06 3.53728e-07
-4.09894e-09 -5.95999e-06 4.23958e-07
3.84441e-09 -8.05921e-06 5.71125e-07
2.55892e-06 4.15694e-09 -4.4649e-09
2.52464e-06 5.28445e-09 -9.52969e-09
2.49138e-06 6.39191e-09 -1.50955e-08
2.53911e-06 3.65683e-09 -1.78482e-08
2.49909e-06 3.93492e-09 -4.88129e-09
2.46559e-06 5.09537e-09 -1.03775e-08
7.73113e-09 -6.98043e-06 4.97592e-07
2.43225e-06 5.84787e-09 -1.559e-08
-2.50557e-09 -4.97823e-06 3.55476e-07
-3.58263e-09 -5.97772e-06 4.25397e-07
7.88826e-09 -7.00187e-06 4.98174e-07
4.47825e-09 -8.08261e-06 5.73685e-07
-4.47886e-09 -5.99613e-06 4.2532e-07
2.47931e-06 3.60804e-09 -1.69507e-08
2.44012e-06 3.79624e-09 -4.28541e-09
2.4073e-06 4.96767e-09 -1.05641e-08
2.37385e-06 5.36081e-09 -1.58304e-08
-1.68565e-08 -9.2258e-06 6.50086e-07
-1.28995e-08 -9.25301e-06 6.50209e-07
-7.70995e-09 -9.27891e-06 6.52596e-07
2.42198e-06 3.45472e-09 -1.66501e-08
-2.04882e-09 -4.99281e-06 3.57252e-07
7.07558e-09 -7.02256e-06 5.00761e-07
3.41294e-09 -8.10644e-06 5.76768e-07
2.31814e-06 5.02787e-09 -1.5576e-08
-3.94795e-09 -9.30476e-06 6.54057e-07
2.05799e-06 1.4483e-08 -8.36473e-08
-1.56614e-07 -1.87204e-05 1.23273e-06
-1.32844e-08 -1.05986e-05 7.18822e-07
-2.86859e-08 -1.21939e-05 8.30355e-07
-5.68995e-08 -1.39938e-05 9.55831e-07
2.49161e-06 7.28825e-09 1.50369e-09
2.43603e-06 8.50154e-09 -4.79594e-09
2.00958e-06 1.3788e-08 -8.5252e-08
-1.47172e-07 -1.87664e-05 1.26155e-06
2.13503e-06 1.36026e-08 -6.96166e-08
-9.68398e-08 -1.75807e-05 1.17243e-06
2.43514e-06 7.08579e-09 3.96825e-10
2.38075e-06 8.25147e-09 -5.87137e-09
2.32535e-06 9.64535e-09 -1.86907e-08
2.27092e-06 1.04918e-08 -1.92494e-08
-4.88574e-08 -1.58749e-05 1.04929e-06
2.20891e-06 1.24101e-08 -4.08851e-08
-1.691e-07 -1.88939e-05 1.22011e-06
-6.75972e-09 -1.06279e-05 7.20456e-07
-1.98233e-08 -1.22266e-05 8.31902e-07
-4.69069e-08 -1.403e-05 9.58111e-07
-4.19979e-08 -1.59158e-05 1.05258e-06
-1.37433e-07 -1.88113e-05 1.27402e-06
1.96394e-06 1.31408e-08 -8.26769e-08
2.08452e-06 1.3069e-08 -6.72073e-08
-8.49559e-08 -1.7623e-05 1.17522e-06
-1.59969e-07 -1.89415e-05 1.22364e-06
1.95065e-06 1.30939e-08 9.44209e-09
-4.22091e-08 -1.40676e-05 9.63076e-07
2.3783e-06 6.82304e-09 -9.93516e-10
2.32486e-06 7.94754e-09 -7.28241e-09
2.27034e-06 9.23576e-09 -2.0298e-08
2.21495e-06 9.89631e-09 -2.18871e-08
-7.93102e-08 -1.76667e-05 1.18141e-06
2.15574e-06 1.1886e-08 -4.04737e-08
-1.74248e-07 -1.79187e-05 1.15658e-06
2.32408e-06 6.45454e-09 -3.02423e-09
2.21858e-06 8.7793e-09 -2.15357e-08
2.16272e-06 9.24445e-09 -2.30246e-08
-6.72267e-10 -1.06569e-05 7.23329e-07
-1.30917e-08 -1.22589e-05 8.39739e-07
-3.33815e-08 -1.59549e-05 1.06459e-06
1.91824e-06 1.25883e-08 -7.95992e-08
2.03711e-06 1.25302e-08 -6.54764e-08
-1.33398e-07 -1.88569e-05 1.29932e-06
-1.49415e-07 -1.89869e-05 1.2292e-06
1.90797e-06 1.24359e-08 7.8521e-10
-1.70676e-07 -1.79663e-05 1.16694e-06
-4.57842e-10 -1.06873e-05 7.23779e-07
-1.3791e-08 -1.22926e-05 8.44155e-07
2.27158e-06 7.65999e-09 -9.08845e-09
-3.739e-08 -1.41038e-05 9.65509e-07
-3.36576e-08 -1.59955e-05 1.07213e-06
1.98916e-06 1.20108e-08 -6.30801e-08
-7.50229e-08 -1.77086e-05 1.19063e-06
2.10584e-06 1.13321e-08 -4.02637e-08
1.86527e-06 1.22524e-08 6.98018e-08
-1.73542e-07 1.56136e-05 -1.01195e-06
-1.57107e-07 1.56666e-05 -9.97e-07
2.28155e-06 -1.59816e-08 -2.7743e-07
-1.55722e-07 1.57206e-05 -1.00425e-06
2.22139e-06 -1.55726e-08 -2.69761e-07
-1.61044e-07 1.57723e-05 -1.01019e-06
2.16324e-06 -1.51843e-08 -2.63306e-07
-1.68879e-07 1.58211e-05 -1.01097e-06
-1.72101e-07 1.58701e-05 -1.04263e-06
2.08326e-06 -1.44872e-08 -2.5421e-07
-1.81304e-07 1.5918e-05 -1.07395e-06
2.03699e-06 -1.40666e-08 -2.4744e-07
-1.83595e-07 1.59652e-05 -1.08756e-06
1.99924e-06 -1.36025e-08 -2.26375e-07
-1.93005e-07 1.60131e-05 -1.05756e-06
1.96166e-06 -1.30679e-08 -2.00116e-07
-1.8158e-07 1.40822e-05 -8.43263e-07
-1.97031e-07 1.55578e-05 -1.03097e-06
-1.76e-07 1.40298e-05 -8.64981e-07
2.32924e-06 -1.63962e-08 -2.83974e-07
-2.139e-07 1.55001e-05 -1.04114e-06
-1.84081e-07 1.39754e-05 -8.89437e-07
2.39179e-06 -1.69644e-08 -2.94502e-07
-1.7246e-07 1.54401e-05 -1.00849e-06
-1.40907e-07 1.39182e-05 -8.6344e-07
2.4549e-06 -1.77414e-08 -3.06959e-07
-1.43777e-07 1.53787e-05 -9.69448e-07
-1.19516e-07 1.38598e-05 -8.32484e-07
2.51999e-06 -1.83768e-08 -3.20746e-07
-1.24723e-07 1.53158e-05 -9.43214e-07
-1.09367e-07 1.38011e-05 -8.01806e-07
2.57188e-06 -1.89222e-08 -3.31841e-07
-1.09447e-07 1.52502e-05 -9.31239e-07
2.62938e-06 -1.9156e-08 -3.46355e-07
-1.20087e-07 1.51887e-05 -9.1826e-07
2.68465e-06 -1.92261e-08 -3.59312e-07
-1.47216e-07 1.5128e-05 -9.37564e-07
2.74086e-06 -1.93548e-08 -3.7264e-07
-1.45232e-07 1.36246e-05 -8.1321e-07
-1.24906e-07 1.3683e-05 -8.02197e-07
-1.10614e-07 1.37412e-05 -7.98682e-07
2.50601e-06 -1.59803e-08 -5.97419e-07
2.45331e-06 -1.56274e-08 -5.7853e-07
2.39904e-06 -1.52678e-08 -5.61755e-07
2.34214e-06 -1.48205e-08 -5.4512e-07
2.29399e-06 -1.4333e-08 -5.28703e-07
1.92693e-06 -1.25805e-08 -1.75244e-07
2.23705e-06 -1.38107e-08 -5.07828e-07
-2.05497e-07 1.60592e-05 -1.05324e-06
1.88476e-06 -1.20771e-08 -1.6366e-07
-1.85514e-07 1.41325e-05 -8.24512e-07
2.18152e-06 -1.32774e-08 -4.87744e-07
-1.6587e-07 1.43941e-05 -8.11871e-07
-1.58375e-07 1.50605e-05 -9.86096e-07
-1.5738e-07 1.35634e-05 -8.39313e-07
-1.57117e-07 1.43305e-05 -8.35942e-07
2.79922e-06 -1.94238e-08 -3.84526e-07
2.55969e-06 -1.63426e-08 -6.15396e-07
-1.67395e-07 1.35016e-05 -8.55066e-07
-1.77651e-07 1.4992e-05 -1.03264e-06
-1.31496e-07 1.42616e-05 -8.57884e-07
2.93988e-06 -2.03919e-08 -4.08099e-07
2.68245e-06 -1.72614e-08 -6.49795e-07
-1.58527e-07 1.34339e-05 -8.63145e-07
-1.7565e-07 1.49167e-05 -1.06812e-06
-1.25156e-07 1.4192e-05 -8.43264e-07
2.74705e-06 -1.7907e-08 -6.70172e-07
-1.23246e-07 1.33639e-05 -8.43154e-07
-8.91997e-08 1.41207e-05 -8.16732e-07
2.81289e-06 -1.77696e-08 -6.94873e-07
-8.26166e-08 1.32894e-05 -8.14967e-07
2.88146e-06 -1.75914e-08 -7.15329e-07
-8.22089e-08 1.38979e-05 -8.29141e-07
-6.45789e-08 1.39733e-05 -7.97413e-07
-7.13593e-08 1.32134e-05 -8.046e-07
2.95499e-06 -1.74633e-08 -7.38389e-07
-8.73118e-08 1.31374e-05 -8.20109e-07
3.02948e-06 -1.73052e-08 -7.64341e-07
-6.46699e-08 1.4048e-05 -7.87636e-07
3.01711e-06 -2.08237e-08 -4.13628e-07
-1.39208e-07 1.48437e-05 -1.07316e-06
3.09189e-06 -2.06554e-08 -4.31439e-07
3.16995e-06 -2.00871e-08 -4.41017e-07
3.2534e-06 -1.95728e-08 -4.5612e-07
3.33623e-06 -1.90727e-08 -4.7408e-07
-1.13859e-07 1.47735e-05 -1.06784e-06
-1.21228e-07 1.47033e-05 -1.0673e-06
-1.23216e-07 1.46321e-05 -1.06869e-06
-8.18129e-08 1.38201e-05 -8.43e-07
3.10871e-06 -1.73988e-08 -7.93251e-07
-9.57219e-08 1.30605e-05 -8.28465e-07
-7.65522e-08 1.37403e-05 -8.46756e-07
-9.40904e-08 1.29823e-05 -8.34458e-07
3.1963e-06 -1.80118e-08 -8.22161e-07
2.88279e-06 -1.55874e-08 -1.07973e-06
3.42513e-06 -1.87769e-08 -4.92763e-07
-1.41717e-07 1.45602e-05 -1.08398e-06
3.52275e-06 -1.81347e-08 -5.12319e-07
-1.57933e-07 1.4488e-05 -1.09276e-06
2.80005e-06 -1.57512e-08 -1.04789e-06
2.72583e-06 -1.54635e-08 -1.01376e-06
2.65965e-06 -1.5425e-08 -9.79321e-07
-6.9631e-08 1.36596e-05 -8.50622e-07
-8.59182e-08 1.2903e-05 -8.41211e-07
-1.49195e-07 1.44147e-05 -1.08576e-06
2.96998e-06 -1.43125e-08 -1.11278e-06
-7.62226e-08 1.35772e-05 -8.70307e-07
3.05189e-06 -1.2892e-08 -1.15543e-06
-3.50155e-08 1.34911e-05 -8.38409e-07
3.14644e-06 -1.26789e-08 -1.20238e-06
-7.32089e-09 1.34024e-05 -7.93879e-07
3.23987e-06 -1.17732e-08 -1.25324e-06
3.34587e-06 -1.09714e-08 -1.31342e-06
-5.6243e-09 1.33109e-05 -7.71754e-07
3.29698e-06 -1.72187e-08 -8.4835e-07
3.63212e-06 -1.65058e-08 -5.30741e-07
3.51408e-06 -1.38736e-08 -9.11511e-07
3.62646e-06 -1.08656e-08 -9.55662e-07
3.75568e-06 -7.54213e-09 -1.00602e-06
3.40038e-06 -1.5951e-08 -8.73488e-07
-1.05286e-07 1.28247e-05 -8.9427e-07
-1.47324e-07 1.43383e-05 -1.10448e-06
3.7577e-06 -1.46012e-08 -5.32614e-07
-1.14809e-07 1.27444e-05 -9.16433e-07
-7.76391e-08 1.26637e-05 -8.77616e-07
-7.92864e-08 1.25775e-05 -8.72895e-07
-1.38999e-07 1.42554e-05 -1.11953e-06
3.91094e-06 -1.30764e-08 -5.2764e-07
4.0594e-06 -1.16236e-08 -5.37948e-07
4.22429e-06 -1.03029e-08 -5.64794e-07
-1.12007e-07 1.41665e-05 -1.1258e-06
-1.21796e-07 1.40719e-05 -1.14411e-06
-1.49992e-08 1.32008e-05 -8.35455e-07
-1.87435e-07 1.91651e-05 -1.14793e-06
3.49938e-06 -1.0147e-08 -1.38802e-06
-3.55153e-08 1.30834e-05 -8.68212e-07
-1.42453e-07 1.90325e-05 -1.12601e-06
-1.32117e-07 1.87591e-05 -1.15667e-06
-1.30128e-07 1.88993e-05 -1.13421e-06
3.6247e-06 -7.65436e-09 -1.43771e-06
-2.64428e-08 1.29643e-05 -8.60637e-07
3.72688e-06 -3.1149e-09 -1.48386e-06
3.8235e-06 1.35061e-09 -1.54112e-06
-3.65417e-08 1.28418e-05 -8.67414e-07
3.93882e-06 -5.4184e-09 -1.07607e-06
4.08668e-06 -3.6017e-09 -1.12526e-06
4.21395e-06 2.87245e-10 -1.16247e-06
4.33254e-06 4.50545e-09 -1.21635e-06
-6.49164e-08 1.24851e-05 -8.45684e-07
-8.71984e-08 1.39697e-05 -1.1114e-06
4.45388e-06 -1.01548e-08 -6.04051e-07
-5.36841e-08 1.23778e-05 -8.34567e-07
-6.154e-08 1.38567e-05 -1.09922e-06
-3.11382e-08 1.22583e-05 -8.3993e-07
-3.1656e-08 1.21315e-05 -8.55681e-07
4.61558e-06 -7.58942e-09 -6.64986e-07
4.77395e-06 -3.95721e-09 -6.88802e-07
4.92783e-06 -7.82262e-10 -7.23724e-07
-3.92524e-08 1.37465e-05 -1.06528e-06
-4.23233e-08 1.36298e-05 -1.05741e-06
-1.83316e-07 1.92834e-05 -1.10933e-06
1.99718e-06 -1.35593e-08 -6.65533e-09
1.90984e-06 -1.27213e-08 -6.74311e-08
-1.65848e-07 1.88431e-05 -1.2056e-06
-1.70793e-07 1.78699e-05 -1.13497e-06
1.96011e-06 -1.30747e-08 -6.08032e-08
2.04971e-06 -1.41095e-08 -6.85505e-10
2.00384e-06 -1.35308e-08 -6.49494e-08
2.04607e-06 -1.39637e-08 -7.8065e-08
2.09243e-06 -1.45336e-08 -8.48551e-08
-1.48547e-07 1.87895e-05 -1.21834e-06
-1.60123e-07 1.78204e-05 -1.11873e-06
2.10149e-06 -1.46175e-08 3.67578e-09
-1.40742e-07 1.8737e-05 -1.22912e-06
-1.48278e-07 1.77683e-05 -1.15641e-06
2.15452e-06 -1.51151e-08 4.84816e-09
-1.48302e-07 1.77195e-05 -1.16721e-06
-1.23213e-07 1.86827e-05 -1.21858e-06
2.2065e-06 -1.56642e-08 1.01923e-08
2.10748e-06 -1.51417e-08 8.78316e-08
2.18563e-06 -1.41215e-08 7.21776e-08
2.26057e-06 -1.27849e-08 4.46163e-08
-1.38778e-07 1.86683e-05 -1.22414e-06
-8.63428e-08 1.75336e-05 -1.18267e-06
2.16229e-06 -1.57863e-08 9.14759e-08
2.21619e-06 -1.64224e-08 9.69286e-08
2.2689e-06 -1.71358e-08 1.03471e-07
2.32152e-06 -1.77991e-08 1.15745e-07
2.24119e-06 -1.47228e-08 7.78734e-08
2.31667e-06 -1.31215e-08 4.79452e-08
-1.25637e-07 1.86178e-05 -1.22673e-06
-7.01582e-08 1.74837e-05 -1.18654e-06
2.29543e-06 -1.52387e-08 8.11518e-08
2.37133e-06 -1.33721e-08 5.07201e-08
-1.16472e-07 1.85657e-05 -1.22974e-06
-6.46606e-08 1.74344e-05 -1.17674e-06
2.34752e-06 -1.58182e-08 8.46791e-08
2.42222e-06 -1.3702e-08 5.54884e-08
-1.05238e-07 1.85132e-05 -1.23581e-06
-1.00664e-07 1.84604e-05 -1.23333e-06
-5.62096e-08 1.7386e-05 -1.16662e-06
2.40098e-06 -1.64222e-08 9.08282e-08
2.47564e-06 -1.39679e-08 5.79974e-08
-4.86206e-08 1.73353e-05 -1.15229e-06
-1.04481e-07 1.7665e-05 -1.13075e-06
-1.07455e-07 1.86288e-05 -1.1949e-06
2.13961e-06 -1.50234e-08 -9.8412e-08
2.26137e-06 -1.61148e-08 1.34063e-08
2.31354e-06 -1.68564e-08 -1.23155e-07
2.23065e-06 -1.60809e-08 -1.17574e-07
2.18252e-06 -1.5642e-08 -1.13864e-07
-7.6028e-08 1.76123e-05 -1.09024e-06
-8.0757e-08 1.85714e-05 -1.16728e-06
2.31272e-06 -1.64821e-08 1.96457e-08
-6.20002e-08 1.7558e-05 -1.08588e-06
-7.18071e-08 1.8516e-05 -1.16652e-06
2.36437e-06 -1.69726e-08 2.03676e-08
-8.69375e-08 1.74446e-05 -1.08429e-06
-6.46818e-08 1.75006e-05 -1.08679e-06
-7.68105e-08 1.84611e-05 -1.19003e-06
2.45402e-06 -1.78092e-08 2.22553e-08
-7.11865e-08 1.84023e-05 -1.17093e-06
2.51664e-06 -1.84473e-08 2.19531e-08
2.37852e-06 -1.85011e-08 1.27257e-07
2.43384e-06 -1.92492e-08 1.38928e-07
2.49114e-06 -1.97792e-08 1.51667e-07
2.58846e-06 -2.08382e-08 1.63227e-07
2.65648e-06 -2.163e-08 1.6942e-07
2.459e-06 -1.70713e-08 9.74176e-08
2.53303e-06 -1.44762e-08 6.15932e-08
-8.27451e-08 1.84059e-05 -1.20183e-06
-3.12786e-08 1.72814e-05 -1.13046e-06
2.51172e-06 -1.77375e-08 1.04426e-07
2.58802e-06 -1.50189e-08 6.59893e-08
-7.08336e-08 1.83504e-05 -1.18788e-06
-2.20587e-08 1.72281e-05 -1.12779e-06
2.56768e-06 -1.83358e-08 1.11232e-07
2.64509e-06 -1.54826e-08 7.03246e-08
-7.2158e-08 1.82936e-05 -1.1953e-06
-8.10569e-08 1.82364e-05 -1.19736e-06
-2.30256e-08 1.7174e-05 -1.13654e-06
2.66723e-06 -1.94057e-08 1.18551e-07
2.74602e-06 -1.64761e-08 7.37707e-08
-3.2497e-08 1.71187e-05 -1.13738e-06
2.73765e-06 -2.01339e-08 1.19057e-07
2.81806e-06 -1.70059e-08 7.47718e-08
2.32453e-06 -1.09098e-08 1.93365e-08
2.37991e-06 -1.00414e-08 1.93677e-08
-5.09525e-08 1.39531e-05 -9.61352e-07
-4.27284e-08 1.58312e-05 -1.057e-06
2.38453e-06 -1.13412e-08 1.95354e-08
2.43988e-06 -1.04239e-08 2.12964e-08
-3.53035e-08 1.57867e-05 -1.06032e-06
-3.9205e-08 1.39105e-05 -9.65526e-07
2.44404e-06 -1.17421e-08 1.96218e-08
2.49913e-06 -1.07604e-08 2.33984e-08
-1.77967e-08 1.56952e-05 -1.06689e-06
-8.07783e-09 1.56479e-05 -1.06149e-06
-3.64379e-08 1.38694e-05 -9.71881e-07
-2.71088e-08 1.57396e-05 -1.07084e-06