# vtk DataFile Version 3.0
vtk output
ASCII
DATASET POLYDATA
POINTS 3333 float
0.169989 0.170252 -0.00916395
0.190008 0.170236 -0.00947002
0.210018 0.170214 -0.009355
0.230026 0.170188 -0.00932072
0.180004 0.165178 -0.0089366
0.129959 0.170208 -0.00881634
0.149974 0.170201 -0.00908729
0.20002 0.165152 -0.00915965
0.220027 0.16511 -0.00906892
0.240032 0.165072 -0.00906038
0.139974 0.16519 -0.00870314
0.159989 0.165163 -0.00889184
0.19002 0.160137 -0.00890302
0.210027 0.160078 -0.0087629
0.230032 0.16003 -0.00869762
0.12998 0.160194 -0.00826015
0.149993 0.160154 -0.0084865
0.170008 0.160112 -0.00859693
0.200029 0.155092 -0.00854417
0.220034 0.155022 -0.00842806
0.240038 0.154968 -0.00838673
0.109975 0.170044 -0.00804049
0.139996 0.155198 -0.00809526
0.160009 0.155141 -0.00825167
0.180023 0.155085 -0.00831028
0.190029 0.150135 -0.00828508
0.210034 0.150044 -0.0081254
0.230038 0.149974 -0.00803348
0.24999 0.170347 -0.00929901
0.119995 0.164995 -0.00796464
0.150012 0.15017 -0.00783317
0.170024 0.150102 -0.00792456
0.200035 0.14511 -0.00790342
0.220038 0.145013 -0.00776702
0.269998 0.17033 -0.00930818
0.290009 0.17031 -0.00934728
0.31001 0.170294 -0.00941421
0.330051 0.170323 -0.0093479
0.35004 0.170292 -0.00930776
0.370018 0.170257 -0.00928141
0.260001 0.165259 -0.00907468
0.280011 0.165222 -0.00910213
0.300012 0.165198 -0.00915582
0.320051 0.165224 -0.00917367
0.340043 0.165187 -0.00912011
0.360024 0.165156 -0.0090762
0.250007 0.160233 -0.0087301
0.270016 0.160178 -0.00874536
0.290016 0.160141 -0.00878341
0.310007 0.160122 -0.00884066
0.330045 0.160123 -0.00881559
0.35003 0.160088 -0.00876672
0.370006 0.160067 -0.00872226
0.260026 0.155194 -0.00844769
0.280024 0.155136 -0.0084815
0.300014 0.155103 -0.00853168
0.320049 0.155117 -0.00857734
0.340035 0.155066 -0.00852476
0.360013 0.155037 -0.0084716
0.250039 0.150233 -0.00807403
0.270034 0.150154 -0.00809999
0.290023 0.150102 -0.00813805
0.310006 0.150077 -0.00818481
0.33004 0.150065 -0.00819318
0.350021 0.150023 -0.00814239
0.369994 0.150009 -0.00808525
0.260046 0.145193 -0.00778128
0.280031 0.145125 -0.00781726
0.30001 0.145087 -0.00786383
0.360002 0.145027 -0.00781921
0.320044 0.145099 -0.00792139
0.340025 0.145039 -0.00787768
0.389998 0.170372 -0.00932116
0.409998 0.170362 -0.00933978
0.429997 0.170343 -0.00937876
0.450009 0.17035 -0.00938627
0.470004 0.170346 -0.00932665
0.489997 0.170328 -0.00928862
0.380007 0.165265 -0.00908743
0.400004 0.165245 -0.00910703
0.42 0.165228 -0.00914103
0.440012 0.165229 -0.00920378
0.460006 0.165223 -0.00913272
0.479998 0.165214 -0.00907768
0.390012 0.160173 -0.00876036
0.410006 0.16015 -0.00879103
0.430001 0.160138 -0.00882803
0.450009 0.160139 -0.00882733
0.470001 0.160128 -0.00876905
0.489992 0.160124 -0.00871948
0.400016 0.15512 -0.00850739
0.420007 0.155102 -0.00854605
0.380023 0.155146 -0.0084715
0.460005 0.155089 -0.00853054
0.479994 0.155081 -0.00847175
0.440014 0.155101 -0.00858698
0.390027 0.150108 -0.00814016
0.410016 0.150076 -0.00818279
0.430006 0.150072 -0.0082169
0.469999 0.150047 -0.0081568
0.489986 0.15005 -0.00809738
0.45001 0.150055 -0.00820431
0.380042 0.14514 -0.00782571
0.400027 0.145092 -0.0078757
0.420014 0.145075 -0.00791471
0.440017 0.145089 -0.00795048
0.460004 0.145053 -0.00790144
0.47999 0.145043 -0.00784446
0.510003 0.170328 -0.00928875
0.529996 0.170346 -0.00932681
0.549991 0.17035 -0.00938649
0.570004 0.170343 -0.00937887
0.590003 0.170362 -0.00933995
0.610002 0.170372 -0.00932141
0.500012 0.165204 -0.00903927
0.520002 0.165214 -0.00907783
0.539994 0.165223 -0.00913291
0.559988 0.165229 -0.00920403
0.58 0.165228 -0.00914116
0.599996 0.165245 -0.00910723
0.619993 0.165266 -0.00908772
0.510009 0.160124 -0.00871962
0.529999 0.160128 -0.00876921
0.549991 0.160139 -0.00882753
0.569999 0.160139 -0.00882812
0.589994 0.16015 -0.00879118
0.609988 0.160173 -0.00876059
0.500018 0.15509 -0.0084155
0.520006 0.155081 -0.0084719
0.539995 0.155089 -0.00853072
0.559986 0.155101 -0.0085872
0.579993 0.155102 -0.00854616
0.599984 0.15512 -0.00850757
0.619977 0.155146 -0.00847177
0.510014 0.15005 -0.00809764
0.530001 0.150047 -0.00815692
0.54999 0.150055 -0.0082043
0.569994 0.150072 -0.00821728
0.589984 0.150076 -0.00818303
0.609973 0.150107 -0.0081402
0.500024 0.145059 -0.00777992
0.52001 0.145043 -0.0078447
0.539996 0.145053 -0.00790142
0.559983 0.145089 -0.00795019
0.579986 0.145075 -0.00791534
0.599973 0.145092 -0.00787603
0.619958 0.145139 -0.00782564
0.629982 0.170258 -0.00928131
0.64996 0.170292 -0.0093076
0.669949 0.170323 -0.00934769
0.68999 0.170294 -0.00941431
0.709991 0.170309 -0.00934736
0.730002 0.17033 -0.00930825
0.639976 0.165156 -0.00907609
0.659957 0.165187 -0.00911994
0.679949 0.165224 -0.00917346
0.699988 0.165198 -0.0091559
0.719989 0.165222 -0.0091022
0.739999 0.165259 -0.00907475
0.629994 0.160067 -0.00872221
0.64997 0.160088 -0.0087666
0.669955 0.160124 -0.00881542
0.689993 0.160122 -0.00884074
0.709984 0.160141 -0.00878348
0.729984 0.160178 -0.00874542
0.749993 0.160233 -0.00873018
0.639987 0.155037 -0.00847153
0.659965 0.155066 -0.00852462
0.679951 0.155117 -0.00857715
0.699986 0.155103 -0.00853175
0.719976 0.155136 -0.00848155
0.739974 0.155194 -0.00844776
0.630006 0.150009 -0.00808579
0.649979 0.150023 -0.00814322
0.66996 0.150065 -0.00819442
0.689994 0.150077 -0.00818477
0.709977 0.150102 -0.00813804
0.729966 0.150154 -0.0081
0.749962 0.150233 -0.00807405
0.639998 0.145027 -0.00782041
0.659975 0.145039 -0.00787961
0.679956 0.145099 -0.00792427
0.69999 0.145088 -0.00786378
0.719969 0.145125 -0.00781722
0.739954 0.145193 -0.00778124
0.75001 0.170347 -0.00929911
0.769974 0.170188 -0.00932077
0.789982 0.170214 -0.00935503
0.809992 0.170236 -0.00947005
0.830011 0.170252 -0.0091642
0.759968 0.165072 -0.00906044
0.779973 0.16511 -0.00906897
0.79998 0.165152 -0.00915968
0.819996 0.165178 -0.00893685
0.850026 0.170201 -0.00908751
0.870041 0.170208 -0.00881653
0.769968 0.16003 -0.00869767
0.789973 0.160078 -0.00876295
0.80998 0.160137 -0.00890305
0.840011 0.165163 -0.00889205
0.860026 0.16519 -0.00870332
0.759962 0.154968 -0.00838679
0.779966 0.155022 -0.00842811
0.799971 0.155092 -0.00854422
0.829992 0.160112 -0.00859714
0.850007 0.160154 -0.00848668
0.87002 0.160194 -0.00826031
0.769962 0.149974 -0.0080335
0.789966 0.150045 -0.0081254
0.809971 0.150135 -0.00828506
0.819977 0.155086 -0.00830882
0.839991 0.155142 -0.00825067
0.860004 0.155198 -0.00809463
0.890025 0.170044 -0.00804065
0.779962 0.145014 -0.00776701
0.799965 0.14511 -0.00790339
0.829976 0.150102 -0.007922
0.849989 0.15017 -0.00783147
0.880005 0.164997 -0.00796513
0.0598423 0.235345 -0.00853627
0.0598688 0.225347 -0.00814718
0.0599172 0.215165 -0.00775024
0.0499197 0.230107 -0.00758118
0.119956 0.17509 -0.00861943
0.0999535 0.175059 -0.00803691
0.109931 0.18015 -0.00863124
0.119919 0.185252 -0.00924084
0.0999124 0.18516 -0.00856024
0.109898 0.190275 -0.00924533
0.0898979 0.190177 -0.00842406
0.119885 0.195227 -0.00992299
0.0998789 0.19529 -0.00916931
0.109864 0.200249 -0.00989507
0.0898684 0.200316 -0.00896297
0.119851 0.205205 -0.0106427
0.0998453 0.205268 -0.00982015
0.10983 0.210246 -0.0106235
0.0898383 0.210307 -0.00958866
0.11982 0.215225 -0.0113333
0.0998194 0.215276 -0.0104574
0.079838 0.215327 -0.00921028
0.109805 0.220256 -0.011235
0.0898143 0.220299 -0.0101512
0.119795 0.225264 -0.0119159
0.0997938 0.225284 -0.0110187
0.0798145 0.22532 -0.00971516
0.109779 0.230293 -0.0117687
0.089788 0.23031 -0.0106263
0.11977 0.235314 -0.0124505
0.0997671 0.235316 -0.0114908
0.079789 0.235326 -0.0101533
0.0698231 0.230349 -0.00914778
0.0698454 0.220357 -0.00871024
0.0798601 0.205332 -0.00867426
0.0698695 0.210362 -0.00822212
0.0798943 0.19518 -0.00818929
0.0899391 0.180075 -0.00790808
0.0799412 0.185101 -0.00764662
0.0699146 0.200246 -0.00772657
0.0498629 0.240291 -0.00778967
0.0598038 0.245329 -0.0087842
0.0498312 0.250333 -0.00790226
0.0597797 0.255347 -0.00888885
0.0498186 0.260329 -0.00787514
0.0597741 0.26536 -0.00879975
0.0498225 0.270324 -0.00769782
0.059782 0.275375 -0.00859467
0.0597986 0.28539 -0.00825262
0.0598353 0.29538 -0.0076792
0.109751 0.240371 -0.0121785
0.0897583 0.240347 -0.0110177
0.0697919 0.240337 -0.00950092
0.119742 0.245435 -0.0127767
0.099735 0.245386 -0.0118279
0.0797555 0.245353 -0.0104433
0.109723 0.25045 -0.0124904
0.0897281 0.250393 -0.0113186
0.0697616 0.250348 -0.00975004
0.0797308 0.25539 -0.0106501
0.0997124 0.255482 -0.0119446
0.119719 0.255534 -0.0129809
0.0897157 0.260467 -0.0113553
0.0697454 0.260378 -0.00983226
0.109704 0.260542 -0.0125943
0.0797243 0.265444 -0.0105986
0.119705 0.265601 -0.0131182
0.0996981 0.26553 -0.0120382
0.0697446 0.270412 -0.00970093
0.109695 0.270593 -0.0126274
0.0897015 0.27051 -0.0113426
0.0797227 0.275472 -0.0104648
0.119702 0.275647 -0.0130695
0.0996954 0.27557 -0.0119496
0.0697517 0.280428 -0.00944042
0.109698 0.28063 -0.0124261
0.0897055 0.280538 -0.0111104
0.119712 0.285675 -0.0127325
0.0997062 0.285594 -0.0115908
0.0797303 0.285491 -0.0100859
0.109718 0.290637 -0.0119346
0.089729 0.290546 -0.0106087
0.0997382 0.295587 -0.0109497
0.11974 0.295665 -0.0120916
0.0797658 0.295485 -0.0094565
0.069771 0.290434 -0.00893736
0.179989 0.175319 -0.00959453
0.139945 0.175257 -0.00927418
0.159966 0.175257 -0.00951405
0.169969 0.180316 -0.00984872
0.149943 0.180331 -0.00964996
0.129916 0.180254 -0.00946665
0.179973 0.185317 -0.0102401
0.139914 0.185339 -0.00980608
0.159945 0.185347 -0.0100816
0.149916 0.190359 -0.0102922
0.169951 0.190353 -0.0105075
0.129882 0.190356 -0.00996894
0.179959 0.195359 -0.0108672
0.159924 0.195395 -0.0107259
0.139886 0.195414 -0.0104625
0.149894 0.200405 -0.0109621
0.169936 0.200386 -0.0111762
0.129851 0.200418 -0.0106205
0.159906 0.205409 -0.0114502
0.179948 0.205372 -0.0116044
0.13986 0.205442 -0.0111884
0.149875 0.210432 -0.0116712
0.169921 0.210406 -0.0118986
0.129825 0.210457 -0.011298
0.159891 0.215442 -0.012146
0.179935 0.215413 -0.0123111
0.13984 0.215468 -0.0118616
0.149857 0.220469 -0.012317
0.169906 0.220456 -0.0125636
[...]
POINT_DATA 3333
VECTORS alpha float
2.2643e-05 -1.44175e-08 -1.49523e-07
2.36994e-05 -2.54032e-08 1.85643e-07
2.44047e-05 -3.00713e-08 9.66196e-08
2.48137e-05 -3.43838e-08 -7.3705e-09
-5.57723e-09 1.46133e-05 -1.1083e-06
1.9415e-05 -2.30997e-09 -3.14916e-07
2.12045e-05 -1.42493e-08 -2.04785e-07
1.96529e-09 1.46884e-05 -1.18221e-06
4.39293e-09 1.37817e-05 -1.08088e-06
5.81319e-09 1.22908e-05 -9.3925e-07
-1.24734e-08 1.14696e-05 -9.2016e-07
-9.66119e-09 1.34503e-05 -1.06113e-06
1.94217e-05 -6.18329e-08 1.74972e-07
1.96879e-05 -5.28928e-08 1.05223e-07
1.97379e-05 -4.31035e-08 2.89264e-08
1.68265e-05 -3.32942e-08 -2.34913e-07
1.80149e-05 -3.74415e-08 -1.33594e-07
1.8882e-05 -4.14486e-08 -5.53291e-08
8.31627e-09 1.47918e-05 -1.14215e-06
9.65527e-09 1.37809e-05 -1.03518e-06
9.95715e-09 1.22243e-05 -8.95291e-07
1.73489e-05 -3.11685e-08 -4.63481e-07
-5.39837e-09 1.20494e-05 -9.40443e-07
-1.64218e-09 1.38694e-05 -1.05392e-06
2.91846e-09 1.48605e-05 -1.0923e-06
1.53457e-05 -7.68549e-08 1.51561e-07
1.53069e-05 -6.19235e-08 9.93213e-08
1.5127e-05 -4.65003e-08 4.58572e-08
2.50251e-05 -3.1052e-08 2.03302e-08
-6.33612e-09 9.61964e-06 -6.51987e-07
1.47681e-05 -5.25356e-08 -9.77582e-08
1.51863e-05 -5.05996e-08 -2.68567e-08
1.37837e-08 1.47639e-05 -1.07241e-06
1.41589e-08 1.36846e-05 -9.67203e-07
2.50755e-05 -2.88058e-08 -2.7196e-08
2.50542e-05 -2.29111e-08 -6.42128e-08
2.50203e-05 -1.70476e-08 -9.71589e-08
2.5016e-05 -3.63228e-08 6.12222e-08
2.50276e-05 -4.14809e-08 4.4027e-08
2.50662e-05 -4.68785e-08 2.60044e-08
5.61145e-09 1.06178e-05 -8.50704e-07
6.45887e-09 8.96805e-06 -7.14771e-07
6.80715e-09 7.5268e-06 -5.97408e-07
3.81605e-09 6.34642e-06 -5.0711e-07
3.34812e-09 5.38041e-06 -4.25372e-07
2.91392e-09 4.57581e-06 -3.58206e-07
1.96546e-05 -6.30807e-08 -1.24619e-10
1.94859e-05 -4.51065e-08 -2.40935e-08
1.93061e-05 -2.73681e-08 -4.41795e-08
1.91534e-05 -9.91606e-09 -6.05945e-08
1.90555e-05 -4.0482e-08 5.07966e-08
1.89942e-05 -2.69644e-08 4.61338e-08
1.89725e-05 -1.36295e-08 4.18186e-08
8.86089e-09 1.05068e-05 -8.16205e-07
9.02472e-09 8.85728e-06 -6.82008e-07
8.82057e-09 7.43435e-06 -5.6954e-07
4.88624e-09 6.27702e-06 -4.85252e-07
4.10013e-09 5.33811e-06 -4.0794e-07
3.4228e-09 4.55603e-06 -3.4542e-07
1.48686e-05 -6.86703e-08 -1.20205e-08
1.45941e-05 -4.7857e-08 -2.17352e-08
1.43479e-05 -2.77493e-08 -2.89632e-08
1.41543e-05 -8.25537e-09 -3.34888e-08
1.40282e-05 -3.9119e-08 3.51629e-08
1.39483e-05 -2.00334e-08 3.89695e-08
1.39106e-05 -1.17551e-09 4.34586e-08
1.13693e-08 1.03615e-05 -7.66727e-07
1.0942e-08 8.72834e-06 -6.38869e-07
1.029e-08 7.33362e-06 -5.33828e-07
3.89441e-09 4.53487e-06 -3.26309e-07
5.42203e-09 6.20625e-06 -4.56014e-07
4.37935e-09 5.29548e-06 -3.84778e-07
2.5171e-05 -7.26347e-09 -8.85781e-09
2.5246e-05 -1.8462e-08 -3.52142e-08
2.53167e-05 -2.98612e-08 -6.11843e-08
2.53725e-05 4.40554e-09 8.97542e-08
2.54115e-05 -1.36385e-08 6.25526e-08
2.54305e-05 -3.17784e-08 3.44785e-08
1.45867e-09 3.87371e-06 -3.0345e-07
8.7299e-10 3.21931e-06 -2.51907e-07
4.22795e-10 2.58281e-06 -2.01936e-07
5.17139e-10 1.94656e-06 -1.51885e-07
2.05476e-10 1.30454e-06 -1.0104e-07
3.1658e-11 6.54714e-07 -5.03708e-08
1.90084e-05 -2.78474e-08 -2.49018e-08
1.9036e-05 -1.6667e-08 -3.12986e-08
1.90673e-05 -5.5309e-09 -3.73808e-08
1.9093e-05 -1.39955e-08 6.01117e-08
1.91115e-05 -7.32991e-09 5.18957e-08
1.91204e-05 -6.77957e-10 4.33312e-08
1.12698e-09 3.22372e-06 -2.42546e-07
5.75978e-10 2.59055e-06 -1.94814e-07
1.75237e-09 3.87053e-06 -2.92847e-07
2.22323e-10 1.31084e-06 -9.76511e-08
2.46676e-11 6.58004e-07 -4.87669e-08
5.54876e-10 1.95526e-06 -1.47198e-07
1.39191e-05 -3.13132e-08 -3.17874e-08
1.39293e-05 -1.26725e-08 -2.60359e-08
1.39446e-05 5.96417e-09 -2.00959e-08
1.39674e-05 -5.66136e-09 3.9858e-08
1.39723e-05 1.00429e-08 4.36008e-08
1.3958e-05 -1.90666e-08 3.55933e-08
2.07049e-09 3.8635e-06 -2.78125e-07
1.26578e-09 3.22527e-06 -2.3093e-07
6.39991e-10 2.59516e-06 -1.85761e-07
6.16336e-10 1.95992e-06 -1.40406e-07
2.14285e-10 1.31469e-06 -9.32767e-08
6.85213e-12 6.60082e-07 -4.66457e-08
2.54305e-05 3.1697e-08 -3.45191e-08
2.54115e-05 1.3586e-08 -6.26201e-08
2.53724e-05 -4.42399e-09 -8.98355e-08
2.53165e-05 2.98691e-08 6.11086e-08
2.52458e-05 1.85049e-08 3.51201e-08
2.51708e-05 7.34066e-09 8.73963e-09
1.21574e-14 1.93165e-10 -1.47731e-11
3.05925e-11 -6.54337e-07 5.03418e-08
2.03539e-10 -1.30419e-06 1.01015e-07
5.14581e-10 -1.94625e-06 1.51865e-07
4.21374e-10 -2.58254e-06 2.0192e-07
8.71998e-10 -3.21907e-06 2.51899e-07
1.45829e-09 -3.87351e-06 3.03446e-07
1.91201e-05 6.1031e-10 -4.33412e-08
1.91104e-05 7.28464e-09 -5.19257e-08
1.90908e-05 1.39765e-08 -6.01521e-08
1.90639e-05 5.53986e-09 3.73282e-08
1.90313e-05 1.67007e-08 3.12261e-08
1.90023e-05 2.79035e-08 2.48056e-08
1.07516e-15 1.1075e-11 -8.19787e-13
2.33593e-11 -6.58024e-07 4.87686e-08
2.19956e-10 -1.31097e-06 9.76627e-08
5.52112e-10 -1.95553e-06 1.47222e-07
5.74784e-10 -2.59095e-06 1.94849e-07
1.12642e-09 -3.2242e-06 2.42587e-07
1.75236e-09 -3.871e-06 2.92888e-07
1.39727e-05 -1.016e-08 -4.35103e-08
1.39685e-05 5.54308e-09 -3.97704e-08
1.39597e-05 1.89514e-08 -3.55068e-08
1.39467e-05 -6.0772e-09 2.01951e-08
1.39317e-05 1.25775e-08 2.61576e-08
1.39217e-05 3.12365e-08 3.19307e-08
2.82206e-14 1.95199e-10 -1.38187e-11
5.52178e-12 -6.59748e-07 4.66206e-08
2.1174e-10 -1.31451e-06 9.32593e-08
6.12823e-10 -1.95996e-06 1.40398e-07
6.38292e-10 -2.59536e-06 1.85749e-07
1.26429e-09 -3.22563e-06 2.30892e-07
2.06926e-09 -3.86393e-06 2.78044e-07
2.5066e-05 4.68523e-08 -2.59181e-08
2.50273e-05 4.1481e-08 -4.39594e-08
2.50158e-05 3.63454e-08 -6.11671e-08
2.50201e-05 1.70462e-08 9.7191e-08
2.5054e-05 2.29194e-08 6.4222e-08
2.50753e-05 2.88218e-08 2.71841e-08
2.91687e-09 -4.57564e-06 3.5818e-07
3.35197e-09 -5.38028e-06 4.25347e-07
3.82088e-09 -6.34632e-06 5.07087e-07
6.81158e-09 -7.52671e-06 5.97413e-07
6.46253e-09 -8.968e-06 7.14779e-07
5.61398e-09 -1.06178e-05 8.50715e-07
1.8965e-05 1.36115e-08 -4.17336e-08
1.89856e-05 2.69586e-08 -4.60582e-08
1.9046e-05 4.04844e-08 -5.07256e-08
1.91434e-05 9.91274e-09 6.05894e-08
1.9296e-05 2.73617e-08 4.41638e-08
1.9476e-05 4.50961e-08 2.40706e-08
1.96451e-05 6.30667e-08 9.68937e-11
3.42699e-09 -4.55643e-06 3.45441e-07
4.10482e-09 -5.33839e-06 4.07953e-07
4.89128e-09 -6.27716e-06 4.85256e-07
8.82472e-09 -7.43433e-06 5.69555e-07
9.02741e-09 -8.85713e-06 6.82015e-07
8.8617e-09 -1.05066e-05 8.16204e-07
1.39132e-05 1.09275e-09 -4.36418e-08
1.39508e-05 1.99349e-08 -3.92247e-08
1.40306e-05 3.90006e-08 -3.55068e-08
1.41566e-05 8.25368e-09 3.34742e-08
1.435e-05 2.77512e-08 2.89491e-08
1.45962e-05 4.78612e-08 2.17222e-08
1.48705e-05 6.86758e-08 1.20095e-08
3.89885e-09 -4.53524e-06 3.26449e-07
4.38394e-09 -5.29571e-06 3.84958e-07
5.42702e-09 -6.20628e-06 4.56244e-07
1.02931e-08 -7.33367e-06 5.33834e-07
1.09435e-08 -8.72827e-06 6.3887e-07
1.13689e-08 -1.03613e-05 7.66726e-07
2.50249e-05 3.10758e-08 -2.03694e-08
2.48135e-05 3.44332e-08 7.38572e-09
2.44045e-05 3.01086e-08 -9.66093e-08
2.36993e-05 2.5428e-08 -1.85637e-07
2.26429e-05 1.44818e-08 1.49568e-07
5.81248e-09 -1.22908e-05 9.39241e-07
4.39073e-09 -1.37817e-05 1.08087e-06
1.96174e-09 -1.46885e-05 1.1822e-06
-5.58515e-09 -1.46133e-05 1.10836e-06
2.12045e-05 1.43005e-08 2.04817e-07
1.94151e-05 2.34912e-09 3.14941e-07
1.97291e-05 4.31193e-08 -2.89025e-08
1.96799e-05 5.28968e-08 -1.05173e-07
1.94146e-05 6.18259e-08 -1.74905e-07
-9.66812e-09 -1.34503e-05 1.06118e-06
-1.24787e-08 -1.14696e-05 9.20198e-07
9.95469e-09 -1.2224e-05 8.95262e-07
9.6509e-09 -1.37805e-05 1.03514e-06
8.31029e-09 -1.47914e-05 1.14212e-06
1.88759e-05 4.1484e-08 5.5344e-08
1.80096e-05 3.74707e-08 1.33578e-07
1.68221e-05 3.33167e-08 2.34869e-07
1.51287e-05 4.65267e-08 -4.58457e-08
1.53084e-05 6.19423e-08 -9.9317e-08
1.5347e-05 7.68653e-08 -1.51562e-07
2.90864e-09 -1.48603e-05 1.09203e-06
-1.65076e-09 -1.38692e-05 1.05371e-06
-5.40507e-09 -1.20491e-05 9.40284e-07
1.7349e-05 3.11196e-08 4.63693e-07
1.41516e-08 -1.36843e-05 9.67174e-07
1.3775e-08 -1.47635e-05 1.07238e-06
1.51875e-05 5.03464e-08 2.61288e-08
1.47691e-05 5.23485e-08 9.72038e-08
-6.33766e-09 -9.6197e-06 6.52265e-07
-2.96559e-08 2.13436e-05 -7.70125e-07
-2.78841e-08 2.13039e-05 -8.97435e-07
-3.13841e-08 2.19414e-05 -1.05099e-06
-1.64124e-06 8.2742e-09 1.55237e-07
-7.96449e-09 8.58964e-06 -5.88793e-07
-8.75819e-09 8.64716e-06 -5.72227e-07
1.87577e-05 -2.5698e-08 -5.88082e-07
-6.51588e-09 7.25496e-06 -4.84746e-07
-7.90422e-09 7.25867e-06 -4.68683e-07
1.91676e-05 -3.39689e-08 -6.99984e-07
1.59331e-05 -1.41315e-08 -7.70736e-07
-6.48435e-09 5.63617e-06 -3.88434e-07
-7.43064e-09 5.65358e-06 -3.62939e-07
1.81892e-05 -4.14311e-08 -7.03234e-07
1.46889e-05 -1.59267e-08 -7.99513e-07
-5.98892e-09 3.79663e-06 -2.68278e-07
-6.80512e-09 3.91143e-06 -2.53892e-07
1.51513e-05 -4.80375e-08 -6.59352e-07
1.16987e-05 -2.16704e-08 -6.99078e-07
-3.8214e-09 1.87351e-06 -1.29523e-07
-4.69047e-09 2.19253e-06 -1.38417e-07
-1.56203e-08 7.64118e-06 -4.22136e-07
9.6374e-06 -2.64501e-08 -4.44195e-07
6.64781e-06 -1.25428e-08 -4.21975e-07
-1.03927e-10 4.56537e-08 -2.93696e-09
-1.6726e-09 7.02075e-07 -4.11942e-08
-1.49404e-08 6.56087e-06 -3.3491e-07
1.22126e-06 -2.22524e-09 -5.86638e-08
-7.77169e-07 7.35129e-10 5.14368e-08
3.34853e-09 -1.43886e-06 8.1307e-08
7.21743e-10 -2.98207e-07 1.51025e-08
-1.4069e-08 6.10174e-06 -2.65877e-07
-1.69709e-06 1.2213e-09 1.43163e-07
4.48154e-06 -2.5499e-09 -3.58979e-07
-1.51469e-08 9.07379e-06 -5.19994e-07
8.8215e-06 -3.28901e-09 -6.65687e-07
-1.59088e-08 1.06338e-05 -6.41414e-07
1.59582e-05 -2.41221e-08 -6.85821e-07
-1.72202e-08 1.21597e-05 -7.36575e-07
1.15378e-05 -8.67463e-09 -7.89673e-07
-7.78642e-06 1.05014e-08 7.54218e-07
-1.80692e-08 2.23878e-05 -6.05543e-07
-1.53201e-05 -4.27213e-09 1.52873e-06
-1.1885e-10 2.47625e-05 -3.39788e-07
-2.41522e-05 -4.12195e-08 2.45884e-06
3.0594e-08 2.87784e-05 9.84507e-08
-3.40975e-05 -8.19692e-08 3.49538e-06
8.07916e-08 3.47381e-05 8.19089e-07
1.56584e-07 4.29123e-05 1.95661e-06
2.51986e-07 5.35235e-05 3.6972e-06
-1.04467e-05 1.55472e-09 5.13999e-07
-1.08146e-05 -3.00229e-09 7.39791e-07
-9.86049e-06 6.50793e-10 8.65188e-07
4.17886e-09 -2.26961e-06 9.85137e-08
9.15955e-10 -4.89395e-07 1.87931e-08
-1.12259e-08 6.57928e-06 -2.09619e-07
-2.55636e-05 -2.80373e-08 1.29331e-06
-2.35691e-05 -2.87848e-08 1.66339e-06
-2.00454e-05 -2.00254e-08 1.80093e-06
-7.50217e-09 8.33279e-06 -1.43612e-07
-4.27468e-10 4.95148e-07 -1.03714e-08
2.07076e-09 -2.07371e-06 5.44392e-08
-3.901e-05 -1.41901e-07 2.72014e-06
-3.21777e-05 -8.40361e-08 2.904e-06
-4.41646e-05 -1.26563e-07 2.25588e-06
2.50265e-09 1.17399e-05 3.21838e-08
7.11293e-11 -4.37544e-07 2.60854e-09
2.7131e-10 3.05208e-06 -4.56236e-09
-4.60534e-05 -2.25031e-07 4.03625e-06
-6.60692e-05 -2.19449e-07 3.5259e-06
-5.69262e-05 -2.48157e-07 4.06297e-06
2.493e-08 1.71458e-05 4.24159e-07
2.94001e-09 3.07622e-06 6.04707e-08
9.92107e-09 7.58771e-06 1.71558e-07
-6.13174e-05 -3.31206e-07 5.4938e-06
-9.09069e-05 -3.38187e-07 4.99744e-06
-7.69448e-05 -3.66976e-07 5.6319e-06
1.99327e-08 8.90936e-06 4.33534e-07
3.87748e-08 1.44977e-05 7.21021e-07
7.59541e-08 2.48917e-05 1.23668e-06
-0.000118104 -4.44183e-07 6.57345e-06
-9.85406e-05 -4.88282e-07 7.24878e-06
9.10276e-08 2.41505e-05 1.90145e-06
5.78405e-08 1.749e-05 1.39459e-06
1.44252e-07 3.5282e-05 2.68283e-06
-7.75274e-05 -4.3819e-07 6.97966e-06
-8.01526e-09 1.41085e-05 -1.08367e-06
-1.26911e-08 1.05994e-05 -8.45846e-07
-1.14521e-08 1.27557e-05 -1.01498e-06
2.59962e-05 -1.18853e-08 -2.12466e-07
2.38989e-05 1.64538e-08 -2.94139e-07
2.14518e-05 1.90193e-08 -3.82352e-07
-9.65809e-09 1.32796e-05 -1.01911e-06
-8.87756e-09 9.39749e-06 -7.12354e-07
-9.86442e-09 1.17329e-05 -9.03949e-07
2.55328e-05 5.65019e-09 -3.28236e-07
2.83165e-05 -2.52224e-08 -2.27316e-07
2.24367e-05 3.35446e-08 -4.52412e-07
-1.29016e-08 1.21169e-05 -9.30212e-07
-1.03307e-08 1.03558e-05 -7.84651e-07
-7.13821e-09 7.86004e-06 -5.80023e-07
2.55836e-05 -1.24285e-08 -3.42349e-07
2.90279e-05 -4.28307e-08 -2.13014e-07
2.19101e-05 1.19457e-08 -4.81812e-07
-1.04617e-08 8.63298e-06 -6.48295e-07
-1.53252e-08 1.05893e-05 -8.23613e-07
-5.75477e-09 6.01885e-06 -4.3297e-07
2.30883e-05 -2.24187e-08 -3.37798e-07
2.70356e-05 -4.74844e-08 -1.982e-07
1.90507e-05 -6.09453e-09 -4.70675e-07
-9.84141e-09 6.65838e-06 -4.78131e-07
-1.65233e-08 8.77369e-06 -6.57801e-07
-4.21227e-09 3.99568e-06 -2.72863e-07
1.74093e-05 -6.91473e-09 -2.8031e-07
2.15972e-05 -2.24562e-08 -1.654e-07
1.33285e-05 -1.44521e-09 -3.67964e-07
-7.75166e-09 4.56219e-06 -3.00159e-07
-1.52556e-08 6.76568e-06 -4.67693e-07
-2.142e-09 1.95091e-06 -1.20358e-07
1.19085e-05 3.42199e-09 -7.87457e-08
4.19673e-06 2.91944e-09 -1.23079e-07
7.8712e-06 3.7078e-10 -1.35778e-07
-5.37124e-09 1.43896e-05 -1.17645e-06
-1.68987e-09 1.36249e-05 -1.08956e-06
1.16214e-09 1.22348e-05 -9.54026e-07
2.77057e-05 -1.16953e-08 2.78902e-07
2.89564e-05 -2.78666e-08 1.71269e-07
2.98313e-05 -4.44033e-08 4.33565e-08
3.04324e-05 -2.19025e-08 1.10013e-07
-1.24174e-08 1.37741e-05 -1.12235e-06
-8.44844e-09 1.31965e-05 -1.05961e-06
-4.8061e-09 1.19542e-05 -9.40632e-07
3.07443e-05 -2.22336e-08 3.48158e-07
3.26175e-05 -4.98268e-08 2.58602e-07
3.40457e-05 -7.87992e-08 1.46384e-07
3.51229e-05 -6.07574e-08 2.31871e-07
-1.04476e-08 1.14366e-05 -8.81384e-07
-1.69378e-08 1.28533e-05 -1.00524e-06
-1.36364e-08 1.24929e-05 -9.74721e-07
3.21843e-05 -6.08298e-08 4.10555e-07
3.47186e-05 -1.01087e-07 3.43899e-07
3.6753e-05 -1.43949e-07 2.56369e-07
-1.43997e-08 1.06225e-05 -8.50356e-07
-1.95506e-08 1.15627e-05 -9.16451e-07
-1.73435e-08 1.14516e-05 -9.17384e-07
3.08019e-05 -1.07037e-07 3.73486e-07
3.3944e-05 -1.43809e-07 3.61376e-07
3.65682e-05 -1.82313e-07 3.31794e-07
-1.92774e-08 9.95746e-06 -7.77424e-07
-1.85822e-08 1.01055e-05 -8.03566e-07
-1.65711e-08 9.52286e-06 -7.64597e-07
2.57483e-05 -1.03369e-07 2.87616e-07
2.93557e-05 -1.31558e-07 3.17389e-07
3.24712e-05 -1.60485e-07 3.35746e-07
-1.70272e-08 8.11842e-06 -6.06429e-07
-1.76428e-08 8.50945e-06 -6.50799e-07
-1.6718e-08 8.18122e-06 -6.35078e-07
1.60785e-05 -6.73791e-08 2.07924e-07
1.98958e-05 -8.62242e-08 2.5783e-07
2.33019e-05 -1.04365e-07 3.02472e-07
-4.09276e-09 2.5387e-06 -1.43727e-07
-1.09328e-08 4.72728e-06 -2.83121e-07
-9.33616e-11 1.08756e-07 -5.69061e-09
-2.78063e-06 -4.55074e-09 1.84498e-08
-8.82269e-06 -1.81804e-08 2.57846e-07
-6.13771e-06 -9.13182e-09 1.03204e-07
-5.8074e-09 2.89588e-06 -1.36035e-07
3.36302e-10 -1.23729e-06 4.91823e-08
-1.01044e-09 8.55762e-07 -3.78179e-08
-2.60459e-05 -9.67741e-08 7.5136e-07
-2.5065e-05 -7.81207e-08 4.1366e-07
-2.30599e-05 -5.83127e-08 1.60678e-07
-7.81386e-10 -1.72695e-06 3.96445e-08
8.80238e-11 -1.44731e-07 3.94663e-09
-2.54967e-09 1.58516e-06 -4.8684e-08
-4.91376e-05 -1.72598e-07 8.47458e-07
-4.92845e-05 -1.44574e-07 3.91452e-07
-4.75878e-05 -1.95071e-07 1.39705e-06
-1.26045e-09 -9.46033e-07 1.69237e-09
-6.53941e-12 -6.01793e-08 3.61192e-10
-1.2454e-09 1.17934e-06 -1.13172e-08
-7.8332e-05 -2.90872e-07 1.45279e-06
-8.1546e-05 -2.47504e-07 7.66356e-07
-7.33342e-05 -3.19615e-07 2.22859e-06
1.63851e-09 1.56456e-06 3.3623e-08
-5.90634e-10 2.1213e-06 3.89188e-08
3.7776e-09 1.559e-06 3.88581e-08
-0.000119627 -3.94815e-07 1.34369e-06
-0.000102915 -4.98405e-07 3.42827e-06
-0.00011234 -4.53267e-07 2.35849e-06
2.29905e-08 6.26086e-06 3.47356e-07
1.11259e-08 5.21819e-06 2.77695e-07
3.06141e-09 4.90092e-06 2.49072e-07
-0.000135766 -6.84327e-07 4.71469e-06
-0.000150619 -6.30082e-07 3.36167e-06
-0.000163038 -5.42638e-07 2.01557e-06
6.92962e-08 1.36305e-05 1.21875e-06
3.82826e-08 1.14034e-05 1.01042e-06
1.64683e-08 1.00369e-05 8.75415e-07
-1.22196e-08 6.18168e-06 -4.16931e-07
-1.42265e-08 6.77203e-06 -4.69971e-07
-1.47998e-08 6.67832e-06 -4.72835e-07
8.79597e-07 -2.06689e-09 1.28712e-08
4.5246e-06 -1.11699e-08 6.42595e-08
7.90408e-06 -2.05184e-08 1.09047e-07
-6.42399e-09 4.35266e-06 -2.34131e-07
-9.31579e-09 5.06719e-06 -2.83767e-07
-1.1301e-08 5.15953e-06 -2.98085e-07
-2.05847e-05 1.22545e-08 -3.21743e-07
-1.76424e-05 1.27953e-08 -2.58729e-07
-1.47497e-05 1.27983e-08 -2.01626e-07
-4.94463e-09 3.63926e-06 -1.39977e-07
-7.63152e-09 3.83662e-06 -1.57257e-07
-2.0745e-09 2.90924e-06 -1.03603e-07
-4.88018e-05 -3.53945e-08 -7.59612e-07
-4.72402e-05 -2.30348e-08 -6.58653e-07
-4.54413e-05 -1.06549e-08 -5.52918e-07
4.28612e-10 2.21064e-06 -2.45032e-08
-2.10162e-09 2.8156e-06 -4.12928e-08
-5.00868e-09 3.00384e-06 -5.42528e-08
-8.40086e-05 -1.04416e-07 -1.24957e-06
-8.46479e-05 -8.18868e-08 -1.08188e-06
-8.4698e-05 -5.69939e-08 -8.87566e-07
3.26922e-09 2.67933e-06 4.85454e-08
5.05146e-12 2.99187e-06 4.36056e-08
-3.61849e-09 3.02469e-06 3.33041e-08
-0.000126091 -1.67906e-07 -1.46605e-06
-0.000129888 -1.38268e-07 -1.3241e-06
-0.000132689 -1.01464e-07 -1.13742e-06
1.16248e-08 4.79126e-06 2.48768e-07
4.43922e-09 4.62149e-06 2.25396e-07
-2.10614e-09 4.32384e-06 1.9602e-07
-0.000174592 -1.99576e-07 -1.5226e-06
-0.000182635 -1.62362e-07 -1.41839e-06
-0.000189243 -1.13132e-07 -1.24353e-06
3.43856e-08 9.06592e-06 8.14672e-07
1.73001e-08 8.21234e-06 7.1766e-07
3.2064e-09 7.38765e-06 6.23031e-07
-0.000195133 2.82953e-07 -1.33388e-06
-4.38668e-05 1.61906e-07 -3.87506e-07
-0.000135045 9.93023e-08 -1.0747e-06
-0.000121075 -5.82961e-07 8.78495e-06
-0.000146944 -5.41784e-07 8.15781e-06
-9.41419e-05 -5.24434e-07 8.29392e-06
2.11898e-07 3.6856e-05 4.04637e-06
1.55231e-07 2.92057e-05 3.3224e-06
2.89417e-07 4.85397e-05 5.03159e-06
-0.000143818 -6.56775e-07 1.00593e-05
-0.000176598 -6.38542e-07 9.5489e-06
4.09984e-07 5.28663e-05 7.51649e-06
3.27712e-07 4.43921e-05 6.65139e-06
-0.000204091 -6.89237e-07 1.02985e-05
5.94476e-07 6.31557e-05 1.18211e-05
-0.00019245 -8.04596e-07 4.37881e-06
-0.000211101 -6.96794e-07 2.7362e-06
-0.000171168 -8.66535e-07 5.96419e-06
-0.000228844 -2.10496e-07 -1.26471e-06
-0.000242355 -1.84399e-07 -1.24269e-06
-0.000253984 -1.43924e-07 -1.11623e-06
1.71737e-07 2.41126e-05 3.02274e-06
1.09884e-07 2.06142e-05 2.61353e-06
6.35653e-08 1.80561e-05 2.29634e-06
8.70164e-08 1.60446e-05 2.10217e-06
5.1917e-08 1.43078e-05 1.8611e-06
2.34918e-08 1.27489e-05 1.6356e-06
-0.000208234 -1.0333e-06 6.96832e-06
-0.000236921 -9.68147e-07 5.23068e-06
-0.00026292 -8.44492e-07 3.36435e-06
-0.000287931 -2.0852e-07 -7.29848e-07
-0.00030825 -2.21869e-07 -8.60941e-07
-0.000326271 -2.23536e-07 -8.51967e-07
3.50649e-07 3.81179e-05 6.2055e-06
2.45037e-07 3.33243e-05 5.56802e-06
1.60804e-07 2.94803e-05 5.0085e-06
1.8614e-07 2.62827e-05 4.57695e-06
1.24298e-07 2.34761e-05 4.12516e-06
7.35791e-08 2.09739e-05 3.69578e-06
-0.00024365 -1.12724e-06 7.35166e-06
-0.000280454 -1.05636e-06 5.53026e-06
-0.00031471 -9.15515e-07 3.51055e-06
-0.000347958 -1.38217e-07 -4.78085e-07
-0.00037632 -2.08082e-07 -8.20302e-07
-0.000402051 -2.75563e-07 -9.92472e-07
4.65066e-07 4.98384e-05 1.03864e-05
3.29041e-07 4.46877e-05 9.57992e-06
6.2614e-07 5.58624e-05 1.12017e-05
2.49367e-07 3.61956e-05 8.10008e-06
1.66753e-07 3.25612e-05 7.40546e-06
3.47854e-07 4.02215e-05 8.80232e-06
0.00206605 4.6804e-06 -1.54752e-05
0.00196396 5.7274e-06 -3.06657e-05
0.00231439 9.47644e-07 9.83278e-06
0.00224409 2.27969e-07 7.75195e-06
0.00216528 -4.98341e-07 4.56057e-06
-0.000426689 1.55708e-06 -5.82706e-07
0.00238291 -6.62768e-06 7.16572e-06
-0.000343404 1.00569e-06 -1.04789e-06
3.074e-09 1.0642e-05 -8.55809e-07
4.0664e-09 9.0149e-06 -7.24782e-07
4.59934e-09 7.57175e-06 -6.07579e-07
3.08264e-05 -2.81242e-08 1.56335e-08
3.10523e-05 -3.10124e-08 -3.41163e-08
3.12129e-05 -3.39905e-08 -7.97101e-08
-4.7998e-10 1.04487e-05 -8.74333e-07
5.2112e-10 8.88933e-06 -7.46196e-07
1.19588e-09 7.48062e-06 -6.28488e-07
3.69525e-05 -6.03001e-08 8.99176e-09
3.59588e-05 -5.94407e-08 8.6782e-08
3.65147e-05 -6.15037e-08 3.45638e-08
-1.99325e-09 1.0074e-05 -8.10934e-07
-1.35499e-09 8.61233e-06 -6.99643e-07
-8.39987e-10 7.26387e-06 -5.92959e-07
3.8444e-05 -7.41256e-08 2.73393e-07
4.1381e-05 -1.1593e-07 9.54711e-08
3.96946e-05 -8.77759e-08 1.72848e-07
4.06327e-05 -1.04477e-07 1.20557e-07
3.88221e-05 -1.05706e-07 2.59165e-07
-3.96879e-09 8.12952e-06 -6.38594e-07
-3.4216e-09 6.87943e-06 -5.45638e-07
-3.67065e-09 9.4502e-06 -7.34973e-07