# vtk DataFile Version 3.0
vtk output
ASCII
DATASET POLYDATA
POINTS 505 float
0.0899995 0.0300198 -0.000555753
0.109999 0.0300204 -0.000630751
0.129999 0.0300211 -0.000694922
0.149999 0.0300218 -0.000748391
0.17 0.0300224 -0.000792235
0.19 0.0300231 -0.000828009
0.21 0.0300236 -0.000857353
0.23 0.0300242 -0.000881729
0.25 0.0300248 -0.000902305
0.27 0.0300253 -0.000919941
0.29 0.0300258 -0.000935229
0.31 0.0300262 -0.000948564
0.33 0.0300266 -0.000960198
0.35 0.030027 -0.000970297
0.37 0.0300273 -0.000978972
0.39 0.0300276 -0.000986297
0.41 0.0300279 -0.000992329
0.43 0.030028 -0.000997108
0.45 0.0300282 -0.00100067
0.47 0.0300283 -0.00100303
0.49 0.0300283 -0.0010042
0.0999997 0.0250158 -0.000559614
0.12 0.0250163 -0.000622961
0.14 0.0250168 -0.000676333
0.16 0.0250173 -0.000720349
0.18 0.0250177 -0.000756272
0.2 0.0250182 -0.000785601
0.22 0.0250186 -0.000809768
0.24 0.025019 -0.00082998
0.26 0.0250195 -0.000847156
0.28 0.0250199 -0.000861952
0.3 0.0250202 -0.000874811
0.32 0.0250206 -0.000886023
0.34 0.0250209 -0.000895775
0.36 0.0250212 -0.000904192
0.38 0.0250214 -0.00091136
0.4 0.0250216 -0.000917339
0.42 0.0250218 -0.000922176
0.44 0.0250219 -0.000925903
0.46 0.025022 -0.000928548
0.48 0.0250221 -0.000930128
0.0699995 0.0300191 -0.000471183
0.5 0.0250221 -0.000930653
0.15 0.0200123 -0.000646642
0.17 0.0200126 -0.000682314
0.19 0.0200129 -0.000711388
0.21 0.0200132 -0.000735191
0.23 0.0200135 -0.000754911
0.25 0.0200138 -0.000771504
0.27 0.0200141 -0.000785674
0.29 0.0200144 -0.000797914
0.31 0.0200146 -0.000808552
0.33 0.0200149 -0.000817805
0.35 0.0200151 -0.000825813
0.37 0.0200153 -0.000832673
0.39 0.0200155 -0.000838453
0.41 0.0200156 -0.000843202
0.43 0.0200157 -0.00084696
0.45 0.0200158 -0.000849754
0.47 0.0200159 -0.000851605
0.49 0.0200159 -0.000852527
0.51 0.0300283 -0.0010042
0.53 0.0300283 -0.00100303
0.55 0.0300282 -0.00100067
0.57 0.030028 -0.000997107
0.59 0.0300279 -0.000992326
0.61 0.0300276 -0.000986294
0.63 0.0300273 -0.000978968
0.65 0.030027 -0.000970293
0.67 0.0300266 -0.000960194
0.69 0.0300262 -0.000948559
0.71 0.0300258 -0.000935224
0.73 0.0300253 -0.000919935
0.75 0.0300248 -0.000902298
0.77 0.0300242 -0.000881722
0.79 0.0300237 -0.000857345
0.81 0.0300231 -0.000828001
0.83 0.0300224 -0.000792226
0.85 0.0300218 -0.000748382
0.870001 0.0300211 -0.000694912
0.890001 0.0300205 -0.00063074
0.91 0.0300198 -0.000555741
0.52 0.0250221 -0.000930128
0.54 0.025022 -0.000928548
0.56 0.0250219 -0.000925902
0.58 0.0250218 -0.000922174
0.6 0.0250216 -0.000917337
0.62 0.0250214 -0.000911358
0.64 0.0250212 -0.00090419
0.66 0.0250209 -0.000895772
0.68 0.0250206 -0.000886019
0.7 0.0250202 -0.000874808
0.72 0.0250199 -0.000861948
0.74 0.0250195 -0.000847152
0.76 0.025019 -0.000829975
0.78 0.0250186 -0.000809763
0.8 0.0250182 -0.000785595
0.82 0.0250177 -0.000756266
0.84 0.0250173 -0.000720342
0.86 0.0250168 -0.000676325
0.88 0.0250163 -0.000622954
0.9 0.0250158 -0.000559606
0.93 0.0300191 -0.00047117
0.51 0.0200159 -0.000852527
0.53 0.0200159 -0.000851605
0.55 0.0200158 -0.000849753
0.57 0.0200157 -0.000846959
0.59 0.0200156 -0.000843201
0.61 0.0200155 -0.000838452
0.63 0.0200153 -0.000832671
0.65 0.0200151 -0.000825811
0.67 0.0200149 -0.000817803
0.69 0.0200146 -0.00080855
0.71 0.0200144 -0.000797911
0.73 0.0200141 -0.000785671
0.75 0.0200138 -0.000771501
0.77 0.0200135 -0.000754908
0.79 0.0200132 -0.000735188
0.81 0.0200129 -0.000711385
0.83 0.0200126 -0.00068231
0.85 0.0200123 -0.000646637
0.3 0.0350312 -0.000883439
0.32 0.0350317 -0.000895227
0.34 0.0350322 -0.000905512
0.36 0.0350325 -0.000914417
0.38 0.0350329 -0.000922021
0.4 0.0350332 -0.000928381
0.42 0.0350334 -0.000933536
0.44 0.0350336 -0.000937516
0.46 0.0350337 -0.000940344
0.48 0.0350338 -0.000942035
0.5 0.0350338 -0.000942597
0.0999994 0.0350245 -0.000548845
0.119999 0.0350253 -0.000617031
0.139999 0.0350261 -0.00067422
0.159999 0.0350268 -0.000721121
0.179999 0.0350276 -0.000759168
0.2 0.0350283 -0.000790054
0.22 0.0350289 -0.000815393
0.24 0.0350295 -0.000836529
0.26 0.0350301 -0.000854479
0.28 0.0350307 -0.000869957
0.0899994 0.0400283 -0.00046277
0.109999 0.0400293 -0.000534568
0.129999 0.0400302 -0.000595443
0.149999 0.0400311 -0.000645575
0.169999 0.0400319 -0.000686132
0.189999 0.0400327 -0.000718765
0.21 0.0400335 -0.000745191
0.23 0.0400342 -0.000766923
0.25 0.0400349 -0.00078515
0.27 0.0400355 -0.000800731
0.29 0.0400361 -0.000814244
0.31 0.0400367 -0.000826059
0.33 0.0400372 -0.000836404
0.35 0.0400377 -0.000845419
0.37 0.0400381 -0.000853193
0.39 0.0400384 -0.000859781
0.41 0.0400387 -0.000865222
0.43 0.0400389 -0.000869545
0.45 0.0400391 -0.000872771
0.47 0.0400392 -0.000874913
0.49 0.0400393 -0.000875981
0.22 0.0450309 -0.000555706
0.24 0.0450314 -0.00056921
0.26 0.0450319 -0.000580406
0.28 0.0450324 -0.000589931
0.3 0.0450328 -0.000598188
0.32 0.0450332 -0.000605418
0.34 0.0450336 -0.000611755
0.36 0.0450339 -0.000617274
0.38 0.0450342 -0.000622016
0.4 0.0450345 -0.000626004
0.42 0.0450347 -0.000629252
0.44 0.0450348 -0.00063177
0.46 0.0450349 -0.000633563
0.48 0.045035 -0.000634638
0.5 0.045035 -0.000634995
0.16 0.0450292 -0.000490249
0.18 0.0450298 -0.000517653
0.2 0.0450304 -0.000538947
0.0799995 0.0350237 -0.000470162
0.52 0.0350338 -0.000942034
0.54 0.0350337 -0.000940342
0.56 0.0350336 -0.000937514
0.58 0.0350334 -0.000933533
0.6 0.0350332 -0.000928377
0.62 0.0350329 -0.000922017
0.64 0.0350326 -0.000914412
0.66 0.0350322 -0.000905506
0.68 0.0350317 -0.00089522
0.7 0.0350312 -0.000883431
0.72 0.0350307 -0.000869949
0.74 0.0350302 -0.000854469
0.76 0.0350296 -0.000836519
0.78 0.0350289 -0.000815382
0.8 0.0350283 -0.000790043
0.82 0.0350276 -0.000759156
0.840001 0.0350268 -0.000721108
0.860001 0.0350261 -0.000674206
0.880001 0.0350253 -0.000617017
0.900001 0.0350245 -0.00054883
0.51 0.0400393 -0.00087598
0.53 0.0400392 -0.000874911
0.55 0.0400391 -0.000872768
0.57 0.0400389 -0.000869542
0.59 0.0400387 -0.000865217
0.61 0.0400384 -0.000859775
0.63 0.0400381 -0.000853186
0.65 0.0400377 -0.000845411
0.67 0.0400372 -0.000836395
0.69 0.0400367 -0.000826049
0.71 0.0400362 -0.000814233
0.73 0.0400356 -0.000800719
0.75 0.0400349 -0.000785137
0.77 0.0400342 -0.000766909
0.79 0.0400335 -0.000745177
0.810001 0.0400327 -0.00071875
0.830001 0.0400319 -0.000686115
0.850001 0.0400311 -0.000645558
0.870001 0.0400302 -0.000595425
0.890001 0.0400293 -0.000534549
0.910001 0.0400284 -0.000462751
0.52 0.045035 -0.000634637
0.54 0.0450349 -0.000633561
0.56 0.0450348 -0.000631766
0.58 0.0450347 -0.000629247
0.6 0.0450345 -0.000625998
0.62 0.0450342 -0.000622009
0.64 0.0450339 -0.000617266
0.66 0.0450336 -0.000611746
0.68 0.0450332 -0.000605408
0.7 0.0450328 -0.000598177
0.72 0.0450324 -0.000589919
0.74 0.0450319 -0.000580393
0.76 0.0450314 -0.000569197
0.78 0.0450309 -0.000555691
0.8 0.0450304 -0.000538932
0.82 0.0450298 -0.000517636
0.84 0.0450292 -0.000490232
0.92 0.0350237 -0.000470146
-1.6367e-07 0.0250138 -0.000155621
0.0199998 0.0250141 -0.000235979
0.0399998 0.0250145 -0.000321106
0.0599997 0.0250149 -0.000406149
0.0799997 0.0250154 -0.000486736
0.00999974 0.0300174 -0.000195204
0.0299997 0.0300179 -0.000286157
0.0499996 0.0300185 -0.000379885
-3.3805e-08 0.0150075 -0.000131154
0.02 0.0150076 -0.000188699
0.04 0.0150077 -0.000249316
0.06 0.0150079 -0.000309619
0.08 0.015008 -0.000366574
0.1 0.0150081 -0.00041794
0.12 0.0150082 -0.000462478
0.14 0.0150084 -0.000499909
0.16 0.0150086 -0.000530695
0.18 0.0150087 -0.000555743
0.2 0.0150089 -0.000576119
0.22 0.0150091 -0.000592845
0.24 0.0150093 -0.000606777
0.26 0.0150095 -0.000618571
0.28 0.0150097 -0.000628694
0.3 0.0150099 -0.000637463
0.32 0.0150101 -0.000645087
0.34 0.0150103 -0.000651702
0.36 0.0150104 -0.000657399
0.38 0.0150106 -0.00066224
0.4 0.0150107 -0.000666271
0.42 0.0150108 -0.000669527
0.44 0.0150109 -0.000672033
0.46 0.0150109 -0.00067381
0.48 0.015011 -0.00067487
0.0099999 0.0200105 -0.000194144
0.0299999 0.0200107 -0.000269162
0.0499999 0.0200109 -0.000346062
0.0699998 0.0200112 -0.000420713
0.0899998 0.0200114 -0.00048972
0.11 0.0200117 -0.000550843
0.13 0.020012 -0.000603111
0.92 0.0250154 -0.000486726
0.94 0.0250149 -0.000406139
0.96 0.0250145 -0.000321096
0.98 0.0250141 -0.000235968
1 0.0250138 -0.000155609
0.95 0.0300185 -0.000379872
0.97 0.0300179 -0.000286143
0.99 0.0300174 -0.000195189
0.5 0.015011 -0.000675223
0.52 0.015011 -0.00067487
0.54 0.0150109 -0.000673809
0.56 0.0150109 -0.000672033
0.58 0.0150108 -0.000669527
0.6 0.0150107 -0.000666271
0.62 0.0150106 -0.000662239
0.64 0.0150105 -0.000657398
0.66 0.0150103 -0.000651701
0.68 0.0150101 -0.000645086
0.7 0.0150099 -0.000637462
0.72 0.0150097 -0.000628693
0.74 0.0150095 -0.000618569
0.76 0.0150093 -0.000606775
0.78 0.0150091 -0.000592843
0.8 0.0150089 -0.000576117
0.82 0.0150087 -0.00055574
0.84 0.0150086 -0.000530692
0.86 0.0150084 -0.000499906
0.88 0.0150083 -0.000462475
0.9 0.0150081 -0.000417936
0.92 0.015008 -0.000366569
0.94 0.0150079 -0.000309614
0.96 0.0150077 -0.000249311
0.98 0.0150076 -0.000188693
1 0.0150075 -0.000131147
0.87 0.020012 -0.000603106
0.89 0.0200117 -0.000550838
0.91 0.0200114 -0.000489714
0.93 0.0200112 -0.000420707
0.95 0.0200109 -0.000346055
0.97 0.0200107 -0.000269154
0.99 0.0200105 -0.000194135
-2.15168e-07 0.035021 -0.00011375
0.0199997 0.0350216 -0.000199622
0.0399996 0.0350222 -0.00029122
0.0599996 0.0350229 -0.000383055
0.00999977 0.0400252 -0.000115424
0.0299997 0.0400258 -0.0002027
0.0499996 0.0400266 -0.000293135
0.0699995 0.0400274 -0.000381313
-3.50499e-08 0.0450245 3.93409e-06
0.0199999 0.0450249 -6.68367e-05
0.0399999 0.0450254 -0.000143089
0.0599998 0.045026 -0.000219624
0.0799997 0.0450266 -0.000291754
0.0999997 0.0450273 -0.000356028
0.12 0.0450279 -0.000410576
0.14 0.0450286 -0.000455049
0.0100001 0.0500241 5.48925e-05
0.0300001 0.0500244 -5.79161e-06
0.0500001 0.0500247 -6.90545e-05
0.07 0.0500251 -0.000130233
0.09 0.0500255 -0.000185538
0.11 0.0500259 -0.000232567
0.13 0.0500263 -0.000270426
0.15 0.0500267 -0.000299496
0.17 0.050027 -0.000321002
0.19 0.0500274 -0.000336546
0.21 0.0500277 -0.000347727
0.23 0.050028 -0.000355906
0.25 0.0500283 -0.000362116
0.27 0.0500287 -0.000367066
0.29 0.050029 -0.0003712
0.31 0.0500292 -0.000374774
0.33 0.0500295 -0.000377923
0.35 0.0500298 -0.000380706
0.37 0.05003 -0.000383148
0.39 0.0500302 -0.000385252
0.41 0.0500303 -0.000387016
0.43 0.0500304 -0.000388435
0.45 0.0500305 -0.000389503
0.47 0.0500306 -0.000390218
0.49 0.0500306 -0.000390575
0.94 0.0350229 -0.000383038
0.96 0.0350222 -0.000291202
0.98 0.0350216 -0.000199603
1 0.0350211 -0.000113731
0.93 0.0400275 -0.000381293
0.95 0.0400266 -0.000293113
0.97 0.0400259 -0.000202678
0.99 0.0400252 -0.0001154
0.86 0.0450286 -0.000455031
0.88 0.045028 -0.000410558
0.9 0.0450273 -0.000356008
0.92 0.0450266 -0.000291734
0.94 0.045026 -0.000219603
0.96 0.0450254 -0.000143067
0.98 0.0450249 -6.68138e-05
1 0.0450245 3.95779e-06
0.51 0.0500306 -0.000390574
0.53 0.0500306 -0.000390216
0.55 0.0500305 -0.0003895
0.57 0.0500305 -0.000388431
0.59 0.0500303 -0.000387011
0.61 0.0500302 -0.000385246
0.63 0.05003 -0.00038314
0.65 0.0500298 -0.000380697
0.67 0.0500295 -0.000377913
0.69 0.0500293 -0.000374764
0.71 0.050029 -0.000371188
0.73 0.0500287 -0.000367053
0.75 0.0500284 -0.000362102
0.77 0.050028 -0.000355891
0.79 0.0500277 -0.000347711
0.81 0.0500274 -0.00033653
0.83 0.050027 -0.000320985
0.85 0.0500267 -0.000299478
0.87 0.0500263 -0.000270407
0.89 0.0500259 -0.000232547
0.91 0.0500255 -0.000185517
0.93 0.0500251 -0.000130212
0.95 0.0500247 -6.90325e-05
0.97 0.0500244 -5.7688e-06
0.99 0.0500241 5.4916e-05
1.44766e-08 0.00500233 -5.1746e-05
0.02 0.00500234 -7.28502e-05
0.04 0.00500234 -9.50007e-05
0.06 0.00500234 -0.000116968
0.0800001 0.00500233 -0.000137656
0.1 0.00500233 -0.00015626
0.12 0.00500233 -0.00017234
0.14 0.00500234 -0.000185808
0.16 0.00500237 -0.000196841
0.18 0.0050024 -0.000205778
0.2 0.00500244 -0.000213014
0.22 0.00500248 -0.000218925
0.24 0.00500254 -0.000223827
0.26 0.0050026 -0.000227961
0.28 0.00500266 -0.000231498
0.3 0.00500272 -0.000234554
0.32 0.00500277 -0.000237206
0.34 0.00500283 -0.000239503
0.36 0.00500287 -0.000241479
0.38 0.00500292 -0.000243155
0.4 0.00500295 -0.00024455
0.42 0.00500298 -0.000245675
0.44 0.00500301 -0.000246541
0.46 0.00500303 -0.000247154
0.48 0.00500304 -0.00024752
0.5 0.00500304 -0.000247641
0.52 0.00500304 -0.00024752
0.54 0.00500303 -0.000247154
0.56 0.00500301 -0.000246541
0.58 0.00500299 -0.000245675
0.6 0.00500295 -0.00024455
0.62 0.00500292 -0.000243155
0.64 0.00500288 -0.000241479
0.66 0.00500283 -0.000239503
0.68 0.00500277 -0.000237206
0.7 0.00500272 -0.000234554
0.72 0.00500266 -0.000231498
0.74 0.0050026 -0.000227961
0.76 0.00500254 -0.000223827
0.78 0.00500249 -0.000218925
0.8 0.00500244 -0.000213013
0.82 0.0050024 -0.000205777
0.84 0.00500237 -0.00019684
0.86 0.00500235 -0.000185807
0.88 0.00500234 -0.000172339
0.9 0.00500233 -0.000156258
0.92 0.00500233 -0.000137654
0.94 0.00500234 -0.000116966
0.96 0.00500234 -9.4999e-05
0.98 0.00500234 -7.28484e-05
1 0.00500233 -5.1744e-05
0.01 0.0100047 -0.000124596
0.0300001 0.0100047 -0.000167851
0.0500001 0.0100047 -0.000211969
0.0700001 0.0100047 -0.000254624
0.0900001 0.0100047 -0.000293915
0.11 0.0100047 -0.0003286
0.13 0.0100047 -0.000358148
0.15 0.0100047 -0.000382649
0.17 0.0100048 -0.000402619
0.19 0.0100048 -0.000418792
0.21 0.0100049 -0.000431939
0.23 0.010005 -0.000442753
0.25 0.0100051 -0.000451788
0.27 0.0100053 -0.000459459
0.29 0.0100054 -0.000466052
0.31 0.0100055 -0.00047176
0.33 0.0100056 -0.000476709
0.35 0.0100057 -0.000480982
0.37 0.0100058 -0.000484634
0.39 0.0100059 -0.000487706
0.41 0.0100059 -0.000490225
0.43 0.010006 -0.000492216
0.45 0.010006 -0.000493695
0.47 0.0100061 -0.000494673
0.49 0.0100061 -0.000495161
0.51 0.0100061 -0.000495161
0.53 0.0100061 -0.000494673
0.55 0.010006 -0.000493694
0.57 0.010006 -0.000492216
0.59 0.0100059 -0.000490225
0.61 0.0100059 -0.000487705
0.63 0.0100058 -0.000484634
0.65 0.0100057 -0.000480981
0.67 0.0100056 -0.000476709
0.69 0.0100055 -0.00047176
0.71 0.0100054 -0.000466051
0.73 0.0100053 -0.000459458
0.75 0.0100051 -0.000451787
0.77 0.010005 -0.000442751
0.79 0.0100049 -0.000431938
0.81 0.0100048 -0.000418791
0.83 0.0100048 -0.000402618
0.85 0.0100047 -0.000382647
0.87 0.0100047 -0.000358146
0.89 0.0100047 -0.000328598
0.91 0.0100047 -0.000293913
0.93 0.0100047 -0.000254621
0.95 0.0100047 -0.000211965
0.97 0.0100047 -0.000167847
0.99 0.0100047 -0.000124592
VERTICES 505 1010
1 0
1 1
1 2
1 3
1 4
1 5
1 6
1 7
1 8
1 9
1 10
1 11
1 12
1 13
1 14
1 15
1 16
1 17
1 18
1 19
1 20
1 21
1 22
1 23
1 24
1 25
1 26
1 27
1 28
1 29
1 30
1 31
1 32
1 33
1 34
1 35
1 36
1 37
1 38
1 39
1 40
1 41
1 42
1 43
1 44
1 45
1 46
1 47
1 48
1 49
1 50
1 51
1 52
1 53
1 54
1 55
1 56
1 57
1 58
1 59
1 60
1 61
1 62
1 63
1 64
1 65
1 66
1 67
1 68
1 69
1 70
1 71
1 72
1 73
1 74
1 75
1 76
1 77
1 78
1 79
1 80
1 81
1 82
1 83
1 84
1 85
1 86
1 87
1 88
1 89
1 90
1 91
1 92
1 93
1 94
1 95
1 96
1 97
1 98
1 99
1 100
1 101
1 102
1 103
1 104
1 105
1 106
1 107
1 108
1 109
1 110
1 111
1 112
1 113
1 114
1 115
1 116
1 117
1 118
1 119
1 120
1 121
1 122
1 123
1 124
1 125
1 126
1 127
1 128
1 129
1 130
1 131
1 132
1 133
1 134
1 135
1 136
1 137
1 138
1 139
1 140
1 141
1 142
1 143
1 144
1 145
1 146
1 147
1 148
1 149
1 150
1 151
1 152
1 153
1 154
1 155
1 156
1 157
1 158
1 159
1 160
1 161
1 162
1 163
1 164
1 165
1 166
1 167
1 168
1 169
1 170
1 171
1 172
1 173
1 174
1 175
1 176
1 177
1 178
1 179
1 180
1 181
1 182
1 183
1 184
1 185
1 186
1 187
1 188
1 189
1 190
1 191
1 192
1 193
1 194
1 195
1 196
1 197
1 198
1 199
1 200
1 201
1 202
1 203
1 204
1 205
1 206
1 207
1 208
1 209
1 210
1 211
1 212
1 213
1 214
1 215
1 216
1 217
1 218
1 219
1 220
1 221
1 222
1 223
1 224
1 225
1 226
1 227
1 228
1 229
1 230
1 231
1 232
1 233
1 234
1 235
1 236
1 237
1 238
1 239
1 240
1 241
1 242
1 243
1 244
1 245
1 246
1 247
1 248
1 249
1 250
1 251
1 252
1 253
1 254
1 255
1 256
1 257
1 258
1 259
1 260
1 261
1 262
1 263
1 264
1 265
1 266
1 267
1 268
1 269
1 270
1 271
1 272
1 273
1 274
1 275
1 276
1 277
1 278
1 279
1 280
1 281
1 282
1 283
1 284
1 285
1 286
1 287
1 288
1 289
1 290
1 291
1 292
1 293
1 294
1 295
1 296
1 297
1 298
1 299
1 300
1 301
1 302
1 303
1 304
1 305
1 306
1 307
1 308
1 309
1 310
1 311
1 312
1 313
1 314
1 315
1 316
1 317
1 318
1 319
1 320
1 321
1 322
1 323
1 324
1 325
1 326
1 327
1 328
1 329
1 330
1 331
1 332
1 333
1 334
1 335
1 336
1 337
1 338
1 339
1 340
1 341
1 342
1 343
1 344
1 345
1 346
1 347
1 348
1 349
1 350
1 351
1 352
1 353
1 354
1 355
1 356
1 357
1 358
1 359
1 360
1 361
1 362
1 363
1 364
1 365
1 366
1 367
1 368
1 369
1 370
1 371
1 372
1 373
1 374
1 375
1 376
1 377
1 378
1 379
1 380
1 381
1 382
1 383
1 384
1 385
1 386
1 387
1 388
1 389
1 390
1 391
1 392
1 393
1 394
1 395
1 396
1 397
1 398
1 399
1 400
1 401
1 402
1 403
1 404
1 405
1 406
1 407
1 408
1 409
1 410
1 411
1 412
1 413
1 414
1 415
1 416
1 417
1 418
1 419
1 420
1 421
1 422
1 423
1 424
1 425
1 426
1 427
1 428
1 429
1 430
1 431
1 432
1 433
1 434
1 435
1 436
1 437
1 438
1 439
1 440
1 441
1 442
1 443
1 444
1 445
1 446
1 447
1 448
1 449
1 450
1 451
1 452
1 453
1 454
1 455
1 456
1 457
1 458
1 459
1 460
1 461
1 462
1 463
1 464
1 465
1 466
1 467
1 468
1 469
1 470
1 471
1 472
1 473
1 474
1 475
1 476
1 477
1 478
1 479
1 480
1 481
1 482
1 483
1 484
1 485
1 486
1 487
1 488
1 489
1 490
1 491
1 492
1 493
1 494
1 495
1 496
1 497
1 498
1 499
1 500
1 501
1 502
1 503
1 504
POINT_DATA 505
VECTORS alpha float
-0.000143998 -2.55828e-09 4.08707e-07
-0.000176594 -3.26131e-09 4.31063e-07
-0.000207535 -3.90461e-09 4.2119e-07
-0.000236147 -4.47609e-09 3.89247e-07
-0.000262148 -4.97688e-09 3.46947e-07
-0.000285548 -5.40561e-09 3.03702e-07
-0.000306531 -5.75141e-09 2.65051e-07
-0.000325345 -5.99654e-09 2.32974e-07
-0.000342241 -6.12327e-09 2.07095e-07
-0.000357428 -6.12034e-09 1.8595e-07
-0.000371066 -5.98595e-09 1.67886e-07
-0.000383274 -5.72745e-09 1.5153e-07
-0.00039413 -5.35887e-09 1.35931e-07
-0.000403691 -4.89767e-09 1.20523e-07
-0.000411995 -4.36198e-09 1.05021e-07
-0.000419072 -3.76858e-09 8.93143e-08
-0.000424941 -3.13194e-09 7.3388e-08
-0.000429618 -2.46393e-09 5.72715e-08
-0.000433117 -1.77405e-09 4.10087e-08
-0.000435444 -1.06987e-09 2.46452e-08
-0.000436607 -3.57645e-10 8.22334e-09
-1.38056e-09 3.70797e-05 -2.69796e-07
-1.13869e-09 2.94024e-05 -2.51809e-07
-9.46609e-10 2.42946e-05 -2.34546e-07
-7.9377e-10 2.07811e-05 -2.19385e-07
-6.68731e-10 1.82102e-05 -2.05733e-07
-5.62835e-10 1.6171e-05 -1.92548e-07
-4.70935e-10 1.44274e-05 -1.7911e-07
-3.90431e-10 1.28598e-05 -1.65179e-07
-3.20047e-10 1.14156e-05 -1.50864e-07
-2.58978e-10 1.00755e-05 -1.36423e-07
-2.06487e-10 8.83237e-06 -1.22119e-07
-1.61794e-10 7.6812e-06 -1.08147e-07
-1.24096e-10 6.61539e-06 -9.46159e-08
-9.26186e-11 5.62628e-06 -8.15646e-08
-6.66595e-11 4.70387e-06 -6.89803e-08
-4.56135e-11 3.83765e-06 -5.68185e-08
-2.89791e-11 3.01719e-06 -4.50178e-08
-1.63575e-11 2.2325e-06 -3.35088e-08
-7.44682e-12 1.47407e-06 -2.22188e-08
-2.03613e-12 7.3288e-07 -1.10747e-08
-0.000110843 -1.83571e-09 3.50595e-07
-1.09232e-16 2.16323e-10 -3.27163e-12
-0.000191845 -1.14139e-09 1.89143e-07
-0.000210509 -1.39407e-09 1.66618e-07
-0.000226772 -1.6348e-09 1.44184e-07
-0.000240928 -1.84385e-09 1.24426e-07
-0.000253303 -2.00462e-09 1.08176e-07
-0.000264194 -2.10639e-09 9.5152e-08
-0.000273836 -2.14503e-09 8.45909e-08
-0.000282402 -2.12234e-09 7.56721e-08
-0.000290008 -2.04435e-09 6.77271e-08
-0.000296735 -1.91945e-09 6.02953e-08
-0.000302631 -1.75674e-09 5.30994e-08
-0.000307734 -1.56485e-09 4.59935e-08
-0.000312067 -1.35127e-09 3.89126e-08
-0.000315651 -1.12206e-09 3.18345e-08
-0.000318499 -8.81959e-10 2.47557e-08
-0.000320625 -6.34523e-10 1.76787e-08
-0.000322037 -3.82445e-10 1.06054e-08
-0.000322742 -1.27811e-10 3.53558e-09
-0.000436607 3.57177e-10 -8.21753e-09
-0.000435445 1.06941e-09 -2.46394e-08
-0.000433118 1.7736e-09 -4.10031e-08
-0.00042962 2.4635e-09 -5.72662e-08
-0.000424943 3.13153e-09 -7.33831e-08
-0.000419074 3.7682e-09 -8.93099e-08
-0.000411999 4.36162e-09 -1.05017e-07
-0.000403694 4.89735e-09 -1.2052e-07
-0.000394134 5.35858e-09 -1.35928e-07
-0.000383278 5.72721e-09 -1.51528e-07
-0.000371071 5.98574e-09 -1.67885e-07
-0.000357433 6.12018e-09 -1.8595e-07
-0.000342246 6.12315e-09 -2.07096e-07
-0.000325351 5.99646e-09 -2.32976e-07
-0.000306536 5.75138e-09 -2.65054e-07
-0.000285553 5.40562e-09 -3.03707e-07
-0.000262153 4.97694e-09 -3.46954e-07
-0.000236152 4.47619e-09 -3.89256e-07
-0.00020754 3.90475e-09 -4.21201e-07
-0.000176598 3.26148e-09 -4.31075e-07
-0.000144002 2.55845e-09 -4.0872e-07
-1.29593e-12 -7.32449e-07 1.10681e-08
-5.96207e-12 -1.47365e-06 2.22123e-08
-1.41194e-11 -2.23207e-06 3.35023e-08
-2.59744e-11 -3.01678e-06 4.50113e-08
-4.18245e-11 -3.83725e-06 5.68119e-08
-6.20639e-11 -4.70349e-06 6.89737e-08
-8.719e-11 -5.62591e-06 8.15581e-08
-1.17805e-10 -6.61504e-06 9.46092e-08
-1.54608e-10 -7.68088e-06 1.0814e-07
-1.98374e-10 -8.83208e-06 1.22112e-07
-2.4991e-10 -1.00752e-05 1.36416e-07
-3.10001e-10 -1.14154e-05 1.50857e-07
-3.79388e-10 -1.28596e-05 1.65171e-07
-4.5887e-10 -1.44273e-05 1.79102e-07
-5.49695e-10 -1.61708e-05 1.92539e-07
-6.54383e-10 -1.82101e-05 2.05723e-07
-7.7793e-10 -2.07811e-05 2.19375e-07
-9.28733e-10 -2.42946e-05 2.34534e-07
-1.11786e-09 -2.94025e-05 2.51794e-07
-1.35531e-09 -3.70799e-05 2.69777e-07
-0.000110846 1.83587e-09 -3.50607e-07
-0.000322742 1.27637e-10 -3.53284e-09
-0.000322038 3.82272e-10 -1.06027e-08
-0.000320626 6.34355e-10 -1.76761e-08
-0.0003185 8.81797e-10 -2.47532e-08
-0.000315652 1.12191e-09 -3.18321e-08
-0.000312069 1.35112e-09 -3.89105e-08
-0.000307736 1.56472e-09 -4.59916e-08
-0.000302634 1.75662e-09 -5.30977e-08
-0.000296737 1.91934e-09 -6.02939e-08
-0.000290012 2.04426e-09 -6.7726e-08
-0.000282405 2.12226e-09 -7.56714e-08
-0.00027384 2.14497e-09 -8.45906e-08
-0.000264197 2.10634e-09 -9.51522e-08
-0.000253307 2.00459e-09 -1.08177e-07
-0.000240931 1.84383e-09 -1.24428e-07
-0.000226776 1.6348e-09 -1.44186e-07
-0.000210513 1.39408e-09 -1.66621e-07
-0.000191849 1.14142e-09 -1.89147e-07
-1.67317e-10 1.49414e-05 1.82546e-07
-1.37554e-10 1.31141e-05 1.62057e-07
-1.10165e-10 1.14001e-05 1.42224e-07
-8.5461e-11 9.78233e-06 1.23008e-07
-6.36766e-11 8.24527e-06 1.04354e-07
-4.49724e-11 6.77486e-06 8.61921e-08
-2.94509e-11 5.35814e-06 6.84478e-08
-1.71711e-11 3.98319e-06 5.10404e-08
-8.1627e-12 2.63887e-06 3.38869e-08
-2.438e-12 1.31464e-06 1.69033e-08
-2.14402e-16 3.54507e-10 4.56007e-12
-4.75126e-10 5.33923e-05 5.07456e-07
-4.60797e-10 4.48867e-05 4.41306e-07
-4.35561e-10 3.86132e-05 3.92477e-07
-4.0469e-10 3.3793e-05 3.54675e-07
-3.71182e-10 2.99207e-05 3.2363e-07
-3.36544e-10 2.66714e-05 2.96535e-07
-3.01536e-10 2.38431e-05 2.71693e-07
-2.66649e-10 2.13151e-05 2.48183e-07
-2.32332e-10 1.90157e-05 2.25578e-07
-1.9906e-10 1.6901e-05 2.03715e-07
-0.000164349 -4.79589e-09 5.25875e-07
-0.0002041 -6.0758e-09 5.57811e-07
-0.000242787 -7.17566e-09 5.46201e-07
-0.000279504 -8.07731e-09 5.04234e-07
-0.000313756 -8.80806e-09 4.47833e-07
-0.000345365 -9.39992e-09 3.90143e-07
-0.000374361 -9.86447e-09 3.3906e-07
-0.000400877 -1.01898e-08 2.9745e-07
-0.000425075 -1.03515e-08 2.64754e-07
-0.000447105 -1.03268e-08 2.38784e-07
-0.000467086 -1.01042e-08 2.17054e-07
-0.000485109 -9.6863e-09 1.97485e-07
-0.000501235 -9.08792e-09 1.7864e-07
-0.000515507 -8.33188e-09 1.59668e-07
-0.000527956 -7.44428e-09 1.40153e-07
-0.0005386 -6.45102e-09 1.19959e-07
-0.000547455 -5.37567e-09 9.91032e-08
-0.000554529 -4.23863e-09 7.76768e-08
-0.000559829 -3.05715e-09 5.5802e-08
-0.00056336 -1.84584e-09 3.36087e-08
-0.000565124 -6.17398e-10 1.1226e-08
1.45417e-09 3.70552e-05 1.50263e-06
1.18393e-09 3.33713e-05 1.39591e-06
9.54091e-10 2.99909e-05 1.28849e-06
7.60523e-10 2.68554e-05 1.18067e-06
5.98619e-10 2.39195e-05 1.07268e-06
4.63911e-10 2.11473e-05 9.64708e-07
3.52397e-10 1.85099e-05 8.56841e-07
2.60675e-10 1.59833e-05 7.49143e-07
1.85949e-10 1.35476e-05 6.41641e-07
1.25985e-10 1.11855e-05 5.34339e-07
7.90372e-11 8.88185e-06 4.27222e-07
4.37806e-11 6.62334e-06 3.20266e-07
1.92476e-11 4.39771e-06 2.13438e-07
4.78114e-12 2.19355e-06 1.06696e-07
0 0 0
2.51802e-09 5.08633e-05 1.81507e-06
2.12355e-09 4.5673e-05 1.71245e-06
1.76744e-09 4.11204e-05 1.60826e-06
-4.70887e-10 6.53903e-05 6.00588e-07
-8.48883e-13 -1.31393e-06 -1.68943e-08
-4.9815e-12 -2.63817e-06 -3.38783e-08
-1.23917e-11 -3.98251e-06 -5.10323e-08
-2.30642e-11 -5.35748e-06 -6.84406e-08
-3.69656e-11 -6.77422e-06 -8.61859e-08
-5.40333e-11 -8.24467e-06 -1.04349e-07
-7.41609e-11 -9.78175e-06 -1.23005e-07
-9.71828e-11 -1.13996e-05 -1.42222e-07
-1.22862e-10 -1.31136e-05 -1.62057e-07
-1.5088e-10 -1.49409e-05 -1.82549e-07
-1.8084e-10 -1.69006e-05 -2.0372e-07
-2.12283e-10 -1.90154e-05 -2.25586e-07
-2.44714e-10 -2.13148e-05 -2.48194e-07
-2.77638e-10 -2.3843e-05 -2.71707e-07
-3.1056e-10 -2.66713e-05 -2.96553e-07
-3.42911e-10 -2.99207e-05 -3.23652e-07
-3.73789e-10 -3.37931e-05 -3.54702e-07
-4.01466e-10 -3.86134e-05 -3.92509e-07
-4.22613e-10 -4.4887e-05 -4.41346e-07
-4.31473e-10 -5.33928e-05 -5.07504e-07
-0.000565124 6.16632e-10 -1.12195e-08
-0.000563358 1.84507e-09 -3.36023e-08
-0.000559825 3.05638e-09 -5.57954e-08
-0.000554524 4.23786e-09 -7.767e-08
-0.000547448 5.3749e-09 -9.90962e-08
-0.000538593 6.45025e-09 -1.19952e-07
-0.000527947 7.44351e-09 -1.40146e-07
-0.000515497 8.3311e-09 -1.5966e-07
-0.000501224 9.08714e-09 -1.78632e-07
-0.000485097 9.68552e-09 -1.97477e-07
-0.000467073 1.01035e-08 -2.17044e-07
-0.000447091 1.03261e-08 -2.38774e-07
-0.000425061 1.03507e-08 -2.64743e-07
-0.000400862 1.01891e-08 -2.97438e-07
-0.000374346 9.86378e-09 -3.39045e-07
-0.00034535 9.39928e-09 -3.90125e-07
-0.000313741 8.80747e-09 -4.47811e-07
-0.000279489 8.07678e-09 -5.04207e-07
-0.000242772 7.1752e-09 -5.46169e-07
-0.000204085 6.07541e-09 -5.57774e-07
-0.000164335 4.79556e-09 -5.25834e-07
4.77942e-12 -2.19355e-06 -1.06696e-07
1.92442e-11 -4.39771e-06 -2.13438e-07
4.37755e-11 -6.62334e-06 -3.20267e-07
7.90305e-11 -8.88185e-06 -4.27223e-07
1.25977e-10 -1.11855e-05 -5.3434e-07
1.85939e-10 -1.35476e-05 -6.41642e-07
2.60663e-10 -1.59833e-05 -7.49145e-07
3.52384e-10 -1.85099e-05 -8.56843e-07
4.63897e-10 -2.11473e-05 -9.64711e-07
5.98604e-10 -2.39195e-05 -1.07269e-06
7.60506e-10 -2.68554e-05 -1.18067e-06
9.54074e-10 -2.99909e-05 -1.28849e-06
1.18392e-09 -3.33713e-05 -1.39592e-06
1.45415e-09 -3.70552e-05 -1.50264e-06
1.76742e-09 -4.11204e-05 -1.60827e-06
2.12353e-09 -4.5673e-05 -1.71246e-06
2.51799e-09 -5.08633e-05 -1.81508e-06
-4.19628e-10 -6.53909e-05 -6.00649e-07
-3.84887e-09 0.000251319 1.57956e-07
-3.32722e-09 0.000165912 -1.44419e-07
-2.46923e-09 9.77601e-05 -2.45639e-07
-2.02792e-09 6.7072e-05 -2.81045e-07
-1.67668e-09 4.87969e-05 -2.83184e-07
-2.0904e-05 -2.07934e-10 6.62379e-08
-4.84913e-05 -6.06649e-10 1.63076e-07
-7.85391e-05 -1.16128e-09 2.63425e-07
-3.30682e-09 0.000242072 -1.32181e-06
-2.62879e-09 0.000153979 -1.30995e-06
-1.7715e-09 8.50377e-05 -9.99107e-07
-1.30643e-09 5.36796e-05 -8.05248e-07
-9.56956e-10 3.53663e-05 -6.39991e-07
-6.94208e-10 2.4216e-05 -5.06322e-07
-5.10249e-10 1.75424e-05 -4.0991e-07
-3.88867e-10 1.3669e-05 -3.47891e-07
-3.08919e-10 1.14376e-05 -3.10902e-07
-2.52267e-10 1.00685e-05 -2.88023e-07
-2.075e-10 9.08383e-06 -2.705e-07
-1.6928e-10 8.23132e-06 -2.53121e-07
-1.35905e-10 7.40669e-06 -2.33827e-07
-1.07141e-10 6.58757e-06 -2.12575e-07
-8.29808e-11 5.78647e-06 -1.90222e-07
-6.3202e-11 5.02334e-06 -1.67781e-07
-4.7344e-11 4.31312e-06 -1.46043e-07
-3.48219e-11 3.66253e-06 -1.25481e-07
-2.50417e-11 3.07116e-06 -1.06283e-07
-1.74718e-11 2.53393e-06 -8.84383e-08
-1.16729e-11 2.04328e-06 -7.18168e-08
-7.3021e-12 1.59079e-06 -5.62297e-08
-4.10278e-12 1.16803e-06 -4.1466e-08
-1.89196e-12 7.66978e-07 -2.73119e-08
-5.47757e-13 3.80067e-07 -1.35588e-08
-1.84304e-05 -3.64589e-11 3.55697e-08
-4.2244e-05 -1.01506e-10 8.59368e-08
-6.76493e-05 -1.94275e-10 1.36619e-07
-9.43992e-05 -3.19568e-10 1.79234e-07
-0.000121228 -4.7895e-10 2.06153e-07
-0.000146926 -6.72165e-10 2.14653e-07
-0.000170619 -8.95852e-10 2.07148e-07
-1.64483e-09 -4.87973e-05 2.83157e-07
-1.98606e-09 -6.70725e-05 2.81006e-07
-2.41105e-09 -9.77609e-05 2.4558e-07
-3.23332e-09 -0.000165913 1.44314e-07
-3.71398e-09 -0.000251321 -1.58123e-07
-7.85418e-05 1.1614e-09 -2.63435e-07
-4.84933e-05 6.06727e-10 -1.63084e-07
-2.09051e-05 2.07967e-10 -6.62418e-08
-5.23958e-17 1.23244e-10 -4.3994e-12
-2.24757e-13 -3.79821e-07 1.35501e-08
-1.24189e-12 -7.66733e-07 2.73032e-08
-3.11745e-12 -1.16779e-06 4.14573e-08
-5.96904e-12 -1.59055e-06 5.62212e-08
-9.97534e-12 -2.04304e-06 7.18084e-08
-1.53885e-11 -2.5337e-06 8.84301e-08
-2.25481e-11 -3.07094e-06 1.06275e-07
-3.18907e-11 -3.66232e-06 1.25473e-07
-4.39482e-11 -4.31292e-06 1.46036e-07
-5.93191e-11 -5.02315e-06 1.67774e-07
-7.85983e-11 -5.78629e-06 1.90215e-07
-1.02263e-10 -6.5874e-06 2.12568e-07
-1.30553e-10 -7.40653e-06 2.33821e-07
-1.63487e-10 -8.23117e-06 2.53114e-07
-2.01289e-10 -9.0837e-06 2.70493e-07
-2.45592e-10 -1.00684e-05 2.88017e-07
-3.01584e-10 -1.14376e-05 3.10896e-07
-3.80407e-10 -1.3669e-05 3.47885e-07
-4.99795e-10 -1.75424e-05 4.09904e-07
-6.80345e-10 -2.4216e-05 5.06314e-07
-9.37554e-10 -3.53664e-05 6.39979e-07
-1.27828e-09 -5.36799e-05 8.0523e-07
-1.72897e-09 -8.50382e-05 9.99075e-07
-2.55557e-09 -0.00015398 1.30988e-06
-3.19768e-09 -0.000242074 1.32169e-06
-0.000170622 8.95901e-10 -2.07153e-07
-0.000146929 6.72226e-10 -2.14658e-07
-0.000121231 4.79016e-10 -2.06159e-07
-9.44017e-05 3.19631e-10 -1.7924e-07
-6.76514e-05 1.94326e-10 -1.36624e-07
-4.22455e-05 1.0154e-10 -8.59404e-08
-1.84313e-05 3.64735e-11 -3.55716e-08
-1.33198e-10 0.000261804 2.03713e-06
-3.01532e-10 0.00017973 1.47102e-06
-3.78292e-10 0.000112803 9.63379e-07
-4.39825e-10 8.32405e-05 7.38146e-07
-2.23608e-05 -3.54276e-10 7.91646e-08
-5.29693e-05 -1.08537e-09 2.00788e-07
-8.72125e-05 -2.13848e-09 3.30986e-07
-0.000124852 -3.43018e-09 4.46798e-07
7.57109e-09 0.000272756 4.30189e-06
6.69475e-09 0.000194868 3.58282e-06
5.273e-09 0.000129812 2.73865e-06
4.68563e-09 0.00010197 2.42972e-06
4.24189e-09 8.50614e-05 2.25454e-06
3.81429e-09 7.31987e-05 2.12759e-06