# vtk DataFile Version 3.0
vtk output
ASCII
DATASET POLYDATA
POINTS 1515 float
0.219997 0.0750967 -0.00420684
0.239999 0.0751029 -0.00422948
0.149989 0.0800822 -0.00416568
0.169991 0.0800893 -0.00430169
0.189993 0.0800962 -0.00439244
0.209995 0.080103 -0.00445122
0.229996 0.0801096 -0.00448782
0.109987 0.0800434 -0.0037087
0.139991 0.0750746 -0.00384907
0.159993 0.0750799 -0.00400095
0.179994 0.075084 -0.00410303
0.199996 0.0750868 -0.00416878
0.129988 0.0800792 -0.00396849
0.189997 0.0700781 -0.00386955
0.209999 0.0700812 -0.00391385
0.23 0.070083 -0.00393811
0.0999901 0.0750367 -0.00335505
0.119991 0.075029 -0.00364088
0.0899877 0.080044 -0.00335707
0.179998 0.0650691 -0.00356147
0.199999 0.0650691 -0.00361218
0.220001 0.0650667 -0.0036402
0.240001 0.0650619 -0.00365114
0.129994 0.0700662 -0.00351775
0.149994 0.0700718 -0.00368467
0.169996 0.0700753 -0.0037983
0.119996 0.0649761 -0.00329437
0.109993 0.069992 -0.00339902
0.139996 0.0650663 -0.00335772
0.159997 0.0650559 -0.00349737
0.17 0.0600445 -0.00326343
0.190001 0.0600309 -0.00333184
0.210002 0.0600143 -0.00337458
0.230002 0.0599946 -0.00339882
0.249997 0.0800876 -0.00449174
0.269997 0.080093 -0.00452027
0.289998 0.0800984 -0.0045461
0.309998 0.0801039 -0.00457009
0.329999 0.0801094 -0.00459226
0.349999 0.0801149 -0.00461231
0.37 0.0801204 -0.00462985
0.39 0.0801259 -0.00464445
0.41 0.0801314 -0.00465565
0.430001 0.0801368 -0.00466295
0.450001 0.0801421 -0.00466567
0.470002 0.0801473 -0.00466294
0.490003 0.0801524 -0.00465366
0.259999 0.0750783 -0.00423938
0.279999 0.0750834 -0.00426315
0.3 0.0750886 -0.00428523
0.32 0.075094 -0.00430589
0.34 0.0750995 -0.0043249
0.36 0.0751051 -0.00434184
0.38 0.0751109 -0.00435629
0.400001 0.0751167 -0.00436778
0.420001 0.0751226 -0.00437583
0.440001 0.0751286 -0.00437985
0.460001 0.0751346 -0.00437906
0.480001 0.0751406 -0.00437248
0.250001 0.0700699 -0.00394686
0.270001 0.0700748 -0.00396915
0.290001 0.0700788 -0.00398964
0.310001 0.0700817 -0.00400862
0.330001 0.0700837 -0.00402572
0.350001 0.0700845 -0.00404022
0.370002 0.0700843 -0.00405135
0.390003 0.0701005 -0.00406828
0.410002 0.0701079 -0.00407861
0.430001 0.0701138 -0.00408461
0.45 0.0701183 -0.00408538
0.47 0.0701212 -0.00407987
0.489999 0.0701226 -0.00406695
0.260003 0.0650679 -0.00366661
0.280003 0.065072 -0.00368605
0.300002 0.0650739 -0.00370405
0.320002 0.0650736 -0.00372016
0.340002 0.0650711 -0.00373346
0.360002 0.0650663 -0.00374286
0.380006 0.0650804 -0.00376045
0.400004 0.0650918 -0.00377339
0.420002 0.0651 -0.00378183
0.44 0.0651049 -0.00378467
0.459999 0.0651066 -0.00378083
0.479997 0.0651049 -0.0037692
0.250006 0.0600556 -0.00337447
0.270005 0.060052 -0.00340382
0.290004 0.0600451 -0.00343085
0.310003 0.0600348 -0.00345463
0.330003 0.0600211 -0.00347399
0.350003 0.0600039 -0.00348802
0.370004 0.0599832 -0.00349637
0.390007 0.0600137 -0.00352467
0.410004 0.0600218 -0.00354083
0.430002 0.0600254 -0.00355008
0.449999 0.0600245 -0.00355061
0.469997 0.0600191 -0.00354156
0.489995 0.0600092 -0.00352299
0.509998 0.080142 -0.00465382
0.529999 0.0801403 -0.00466694
0.549999 0.0801376 -0.00467195
0.57 0.080134 -0.00466964
0.59 0.0801296 -0.00466066
0.610001 0.0801243 -0.00464562
0.5 0.0751351 -0.00435838
0.52 0.0751326 -0.00437538
0.54 0.0751293 -0.00438426
0.56 0.0751253 -0.00438583
0.58 0.0751206 -0.0043808
0.6 0.0751153 -0.00436976
0.62 0.0751093 -0.00435329
0.510002 0.0701129 -0.00406777
0.530001 0.0701146 -0.00408321
0.55 0.070114 -0.00409003
0.569999 0.0701112 -0.00408903
0.589998 0.0701062 -0.00408101
0.609998 0.070099 -0.00406678
0.500005 0.0650883 -0.00374779
0.520004 0.0650967 -0.00377083
0.540002 0.0651011 -0.0037841
0.56 0.0651014 -0.00378832
0.579998 0.0650978 -0.00378431
0.599997 0.0650901 -0.00377296
0.619995 0.0650785 -0.00375537
0.629999 0.0801222 -0.00463168
0.649999 0.0801175 -0.00461858
0.669999 0.0801123 -0.00460077
0.69 0.0801066 -0.00457892
0.710002 0.0801004 -0.00455358
0.730003 0.0800938 -0.00452499
0.639998 0.0751061 -0.00434316
0.659998 0.0751024 -0.00433001
0.679999 0.075098 -0.00431248
0.699999 0.0750929 -0.00429136
0.720001 0.0750871 -0.00426725
0.740003 0.0750808 -0.00424021
0.629998 0.0700841 -0.00404804
0.649997 0.0700866 -0.00404223
0.669997 0.0700871 -0.00403057
0.689998 0.0700858 -0.00401422
0.709998 0.0700827 -0.00399426
0.729999 0.0700778 -0.00397141
0.750001 0.0700712 -0.00394565
0.639997 0.0650674 -0.0037411
0.659996 0.0650739 -0.00373592
0.679997 0.0650774 -0.00372461
0.699997 0.0650778 -0.00370862
0.719997 0.0650753 -0.00368921
0.739998 0.0650699 -0.00366713
0.510005 0.0600101 -0.00352488
0.530003 0.0600198 -0.00354282
0.550001 0.060025 -0.0035514
0.569998 0.0600258 -0.00355055
0.589996 0.0600221 -0.00354111
0.609993 0.060014 -0.00352487
0.629996 0.0599814 -0.00349472
0.649997 0.0600036 -0.00348692
0.669997 0.060022 -0.00347305
0.689997 0.0600365 -0.0034536
0.709996 0.0600474 -0.00342963
0.729995 0.0600545 -0.00340237
0.749994 0.060058 -0.00337284
0.750005 0.0801053 -0.00450303
0.760001 0.0751029 -0.00422951
0.780003 0.0750967 -0.00420685
0.770004 0.0801097 -0.00448784
0.790005 0.080103 -0.00445123
0.810007 0.0800962 -0.00439244
0.830009 0.0800893 -0.00430168
0.850011 0.0800822 -0.00416566
0.800004 0.0750868 -0.00416879
0.820006 0.075084 -0.00410303
0.840007 0.0750799 -0.00400094
0.860009 0.0750746 -0.00384905
0.870012 0.0800793 -0.00396846
0.77 0.0700831 -0.00393813
0.790001 0.0700812 -0.00391386
0.810003 0.0700781 -0.00386955
0.890013 0.0800435 -0.0037087
0.759999 0.0650619 -0.00365116
0.779999 0.0650667 -0.00364021
0.800001 0.0650691 -0.00361218
0.820002 0.0650691 -0.00356147
0.830004 0.0700753 -0.00379829
0.850006 0.0700719 -0.00368466
0.870006 0.0700662 -0.00351773
0.880009 0.075029 -0.00364088
0.90001 0.0750368 -0.00335504
0.910012 0.080044 -0.00335706
0.840003 0.065056 -0.00349736
0.860004 0.0650664 -0.00335771
0.769998 0.0599946 -0.00339882
0.789998 0.0600143 -0.00337458
0.809999 0.060031 -0.00333183
0.83 0.0600445 -0.00326342
0.880004 0.0649772 -0.00329443
0.890007 0.0699928 -0.00339901
0.119984 0.0850572 -0.00403246
0.0999845 0.0850507 -0.0037057
0.0799857 0.0850526 -0.00328811
0.109981 0.0900666 -0.00403185
0.0899823 0.0900605 -0.00364228
0.119978 0.0950819 -0.00431248
0.0999788 0.0950716 -0.00395555
0.0799811 0.0950647 -0.0035019
0.109976 0.10009 -0.00423744
0.0899771 0.100077 -0.00381872
0.119974 0.105105 -0.00445514
0.0999742 0.105092 -0.00407405
0.0799769 0.105078 -0.00359281
0.109972 0.110105 -0.00429727
0.0899735 0.110092 -0.00385347
0.0999718 0.115105 -0.00403774
0.119971 0.115119 -0.00443492
0.0799748 0.115091 -0.0035378
0.0899727 0.120103 -0.0037275
0.109971 0.120118 -0.0041799
0.0999726 0.125114 -0.00381404
0.119972 0.125128 -0.00421185
0.0799758 0.125099 -0.00331565
0.0899754 0.130109 -0.00340886
0.109973 0.130124 -0.0038518
0.0999773 0.135115 -0.00337669
0.119976 0.13513 -0.00375598
0.10998 0.14012 -0.0032882
0.069977 0.120088 -0.00317694
0.0699779 0.110079 -0.00331434
0.0699814 0.100068 -0.00330164
0.119986 0.145113 -0.00304699
0.0699844 0.0900609 -0.00315966
0.0599837 0.105071 -0.00301678
0.0599824 0.11508 -0.00294662
0.139984 0.085081 -0.00428084
0.159987 0.0850882 -0.00445418
0.17999 0.0850948 -0.00457513
0.149982 0.0900888 -0.00456457
0.169986 0.0900964 -0.00471876
0.129978 0.0900823 -0.00434921
0.159981 0.0951025 -0.00480329
0.179985 0.0951118 -0.0049463
0.139977 0.0950928 -0.0046024
0.169981 0.100121 -0.00501764
0.129973 0.100093 -0.00458336
0.149977 0.100106 -0.00483517
0.139973 0.10511 -0.00477244
0.159977 0.105124 -0.0049973
0.179981 0.105135 -0.00516034
0.12997 0.110111 -0.00466001
0.149974 0.110125 -0.00493058
0.169978 0.110138 -0.00513037
0.139971 0.115125 -0.00476174
0.159975 0.115139 -0.00499862
0.179979 0.11515 -0.00517242
0.149973 0.120139 -0.00482358
0.169976 0.120151 -0.00503023
0.12997 0.120124 -0.00454616
0.139972 0.125135 -0.00453393
0.159975 0.125149 -0.00477287
0.179979 0.125161 -0.00495015
0.129972 0.13013 -0.00420503
0.149975 0.130146 -0.00447772
0.169978 0.130159 -0.00468244
0.139976 0.135136 -0.00405517
0.159979 0.13515 -0.00428283
0.179981 0.135161 -0.00445281
0.129979 0.140125 -0.00360618
0.14998 0.140139 -0.00385677
0.169983 0.140151 -0.00404498
0.199991 0.0851001 -0.0046646
0.219995 0.0851069 -0.00470792
0.239998 0.0851134 -0.0047376
0.189984 0.0901006 -0.00485811
0.209992 0.0901087 -0.00490558
0.229997 0.0901165 -0.00494163
0.199986 0.0951185 -0.00505952
0.219994 0.0951297 -0.00510758
0.239998 0.0951408 -0.00514522
0.189977 0.100128 -0.00517804
0.209989 0.100141 -0.00524174
0.229997 0.100155 -0.00528996
0.199982 0.105143 -0.00528769
0.219992 0.105157 -0.00534906
0.239997 0.10517 -0.0053974
0.189975 0.110146 -0.00529769
0.209987 0.110159 -0.00537428
0.229993 0.110172 -0.00543412
0.199981 0.11516 -0.00530113
0.21999 0.115173 -0.00537172
0.239993 0.115185 -0.00542913
0.189975 0.12016 -0.0051949
0.209986 0.120173 -0.00527831
0.229991 0.120186 -0.0053455
0.199982 0.125172 -0.00507229
0.219989 0.125184 -0.0051479
0.239992 0.125196 -0.00521163
0.189978 0.130168 -0.00483548
0.209987 0.130182 -0.00492013
0.229991 0.130194 -0.00499027
0.199986 0.135172 -0.00455679
0.219992 0.135184 -0.00462949
0.239993 0.135196 -0.00469286
0.189984 0.140161 -0.00417184
0.209992 0.140173 -0.00424687
0.229994 0.140185 -0.00431082
0.249991 0.120198 -0.00540333
0.24999 0.130206 -0.00504979
0.249991 0.140196 -0.00436778
0.249994 0.110179 -0.00547717
0.249997 0.100151 -0.0053222
0.159986 0.14513 -0.00350819
0.17999 0.14514 -0.00364405
0.139981 0.145118 -0.00331871
0.169994 0.150118 -0.00310226
0.219997 0.145156 -0.00378379
0.24 0.145167 -0.00383195
0.19999 0.145146 -0.00372632
0.230004 0.150137 -0.00329037
0.209997 0.150128 -0.00325361
0.189987 0.150118 -0.00320298
0.300001 0.0851186 -0.00481226
0.259997 0.0851045 -0.00476234
0.28 0.0851107 -0.00478746
0.249997 0.0901221 -0.00497892
0.269999 0.0901242 -0.0050102
0.290003 0.0901303 -0.00503544
0.310005 0.0901352 -0.0050632
0.259997 0.0951323 -0.00518331
0.280002 0.0951403 -0.005215
0.300006 0.0951466 -0.00524615
0.27 0.100148 -0.0053644
[...]
POINT_DATA 1515
VECTORS alpha float
-1.24087e-09 3.61304e-06 -1.96257e-07
-1.14685e-09 3.8107e-06 -2.10945e-07
-4.89577e-05 -1.56261e-08 3.46316e-07
-4.91261e-05 -1.56379e-08 2.317e-07
-4.83217e-05 -1.52355e-08 1.45988e-07
-4.69446e-05 -1.45387e-08 8.68645e-08
-4.53211e-05 -1.3632e-08 4.6342e-08
-4.41457e-05 6.45648e-09 5.98758e-07
8.97268e-10 -1.71899e-06 8.02951e-08
6.97305e-11 -1.44028e-07 7.11528e-09
-6.90282e-10 1.57723e-06 -8.1169e-08
-1.12275e-09 2.88719e-06 -1.53158e-07
-4.74055e-05 -1.45197e-08 4.82176e-07
-2.03874e-05 -3.15945e-09 4.67323e-08
-1.75359e-05 -1.74198e-09 2.20604e-08
-1.47134e-05 -5.88445e-10 7.33318e-09
-2.63116e-10 4.9375e-07 -1.92689e-08
1.10018e-09 -2.06734e-06 8.96893e-08
-3.90461e-05 9.30412e-09 6.84179e-07
-1.03177e-09 2.87945e-06 -1.6295e-07
-1.34344e-09 4.31368e-06 -2.50041e-07
-1.34181e-09 5.02412e-06 -2.96328e-07
-1.16259e-09 5.11852e-06 -3.05862e-07
-2.59506e-05 -7.80475e-09 2.20352e-07
-2.49775e-05 -4.87994e-09 1.463e-07
-2.29895e-05 -1.97597e-09 8.76627e-08
1.02771e-09 -2.26114e-06 1.13493e-07
-2.55578e-05 4.33095e-08 3.37349e-07
5.45553e-10 -1.23087e-06 6.4462e-08
-3.44434e-10 8.5104e-07 -4.69125e-08
-2.77299e-06 1.74908e-09 9.7947e-09
8.71718e-07 -6.79093e-10 -1.94671e-09
4.49937e-06 -4.19204e-09 -5.80135e-09
7.887e-06 -8.58507e-09 -4.61567e-09
-4.36779e-05 -1.0599e-08 5.35374e-08
-4.21494e-05 -1.04687e-08 4.62478e-08
-4.07929e-05 -1.03182e-08 4.18948e-08
-3.96185e-05 -1.01626e-08 3.83075e-08
-3.86119e-05 -1.00088e-08 3.45227e-08
-3.77507e-05 -9.85825e-09 3.02244e-08
-3.70144e-05 -9.7105e-09 2.53619e-08
-3.63887e-05 -9.56411e-09 1.99246e-08
-3.58661e-05 -9.41697e-09 1.38284e-08
-3.54444e-05 -9.26548e-09 6.86972e-09
-3.51248e-05 -9.10367e-09 -1.27841e-09
-3.49098e-05 -8.92261e-09 -1.10422e-08
-3.48019e-05 -8.71086e-09 -2.28924e-08
-9.59648e-10 3.63539e-06 -1.99935e-07
-7.44801e-10 3.25222e-06 -1.80725e-07
-5.5329e-10 2.79091e-06 -1.56463e-07
-3.99215e-10 2.33402e-06 -1.31855e-07
-2.8216e-10 1.92259e-06 -1.09344e-07
-1.95839e-10 1.56876e-06 -8.97503e-08
-1.32926e-10 1.26834e-06 -7.29412e-08
-8.71704e-11 1.01021e-06 -5.83617e-08
-5.39775e-11 7.82172e-07 -4.53674e-08
-3.0268e-11 5.73783e-07 -3.33947e-08
-1.40942e-11 3.7722e-07 -2.20187e-08
-4.25542e-12 1.87094e-07 -1.09475e-08
-1.20959e-05 -2.99881e-09 1.12829e-08
-9.76983e-06 -1.96882e-09 8.35449e-09
-7.75322e-06 -1.19251e-09 6.26002e-09
-6.02547e-06 -6.31707e-10 4.50594e-09
-4.54969e-06 -2.48457e-10 2.98376e-09
-3.28815e-06 -1.02308e-11 1.72448e-09
-2.2106e-06 1.09648e-10 7.83904e-10
-1.29683e-06 -5.13523e-10 6.76929e-10
-5.36234e-07 -1.74258e-10 1.84963e-10
7.51459e-08 1.90054e-11 -9.22341e-12
5.36939e-07 9.6568e-11 7.93617e-11
8.4691e-07 8.95124e-11 4.00937e-10
1.00268e-06 3.04323e-11 8.6244e-10
-9.23991e-10 4.79937e-06 -2.86712e-07
-7.12952e-10 4.26114e-06 -2.56419e-07
-5.3389e-10 3.65511e-06 -2.21295e-07
-3.93908e-10 3.07205e-06 -1.86954e-07
-2.89075e-10 2.55337e-06 -1.56054e-07
-2.11845e-10 2.10746e-06 -1.29237e-07
-6.35033e-11 1.7253e-06 -1.06226e-07
-4.92732e-11 1.39065e-06 -8.60443e-08
-3.77772e-11 1.088e-06 -6.75786e-08
-2.78346e-11 8.0479e-07 -5.01307e-08
-1.86278e-11 5.32278e-07 -3.32182e-08
-9.53203e-12 2.65013e-07 -1.65535e-08
1.09104e-05 -1.27077e-09 -1.43837e-08
1.3532e-05 -3.81023e-09 -1.68508e-08
1.57679e-05 -7.06811e-09 -1.7809e-08
1.76644e-05 -1.08938e-08 -1.68301e-08
1.92754e-05 -1.51725e-08 -1.38753e-08
2.0649e-05 -1.98167e-08 -9.35536e-09
2.18212e-05 -2.47508e-08 -4.09259e-09
2.28106e-05 1.15864e-08 -1.96509e-08
2.36369e-05 6.75755e-09 -1.40112e-08
2.43006e-05 1.52584e-09 -5.06149e-09
2.48016e-05 -3.99533e-09 6.02611e-09
2.51377e-05 -9.6936e-09 1.79661e-08
2.53066e-05 -1.54529e-08 2.93891e-08
-3.48018e-05 2.17921e-09 3.0715e-08
-3.49108e-05 3.7532e-09 1.65041e-08
-3.5127e-05 5.30742e-09 3.7153e-09
-3.54476e-05 6.85896e-09 -7.95225e-09
-3.58701e-05 8.42306e-09 -1.87696e-08
-3.63933e-05 1.00093e-08 -2.88529e-08
-7.69789e-16 -2.46653e-10 1.44763e-11
-3.23752e-12 -1.87576e-07 1.10045e-08
-1.21079e-11 -3.77662e-07 2.2127e-08
-2.72709e-11 -5.74161e-07 3.35658e-08
-4.97485e-11 -7.82465e-07 4.5603e-08
-8.11915e-11 -1.0104e-06 5.8653e-08
-1.24214e-10 -1.26843e-06 7.32668e-08
1.00279e-06 1.41492e-10 -1.01117e-09
8.47267e-07 2.53822e-11 -4.85115e-10
5.37531e-07 -4.31323e-11 -9.52802e-11
7.59386e-08 -1.43856e-11 1.34801e-11
-5.35285e-07 1.59292e-10 -2.63694e-10
-1.29577e-06 5.24117e-10 -9.90139e-10
-5.92288e-15 -1.83342e-10 1.14514e-11
-8.25187e-12 -2.65371e-07 1.66022e-08
-1.62048e-11 -5.32606e-07 3.33259e-08
-2.42957e-11 -8.05069e-07 5.03104e-08
-3.29278e-11 -1.08822e-06 6.78248e-08
-4.25655e-11 -1.3908e-06 8.63318e-08
-5.38522e-11 -1.72537e-06 1.06507e-07
-3.70178e-05 7.66801e-09 -1.49724e-08
-3.77548e-05 8.80046e-09 -2.39831e-08
-3.86165e-05 9.94221e-09 -3.21449e-08
-3.96234e-05 1.10977e-08 -3.94283e-08
-4.0798e-05 1.22755e-08 -4.61661e-08
-4.21547e-05 1.3484e-08 -5.33652e-08
-1.74271e-10 -1.56869e-06 9.02915e-08
-2.5773e-10 -1.92243e-06 1.09902e-07
-3.71857e-10 -2.3338e-06 1.3239e-07
-5.2303e-10 -2.79065e-06 1.56927e-07
-7.11877e-10 -3.25195e-06 1.81056e-07
-9.24655e-10 -3.63514e-06 2.00073e-07
-2.20941e-06 -4.05321e-10 -4.57624e-11
-3.28698e-06 -2.92108e-10 -1.06369e-09
-4.54862e-06 1.6143e-11 -2.5889e-09
-6.02461e-06 5.64463e-10 -4.55563e-09
-7.75267e-06 1.40812e-09 -6.92627e-09
-9.76972e-06 2.6134e-09 -9.80434e-09
-1.20963e-05 4.25108e-09 -1.36572e-08
-1.89044e-10 -2.10737e-06 1.29792e-07
-2.64141e-10 -2.55323e-06 1.56641e-07
-3.66901e-10 -3.07188e-06 1.87523e-07
-5.0483e-10 -3.65493e-06 2.21779e-07
-6.81822e-10 -4.26097e-06 2.56735e-07
-8.90733e-10 -4.79924e-06 2.86776e-07
2.53066e-05 1.50995e-08 -2.84689e-08
2.5138e-05 9.42996e-09 -1.72798e-08
2.48021e-05 3.82157e-09 -5.54618e-09
2.43013e-05 -1.61179e-09 5.36456e-09
2.36377e-05 -6.75985e-09 1.41691e-08
2.28115e-05 -1.15111e-08 1.96967e-08
2.18223e-05 2.65524e-08 3.21081e-09
2.06501e-05 2.11907e-08 9.02143e-09
1.92765e-05 1.61491e-08 1.38611e-08
1.76654e-05 1.15105e-08 1.69696e-08
1.57688e-05 7.37203e-09 1.79875e-08
1.35328e-05 3.86065e-09 1.69962e-08
1.0911e-05 1.14252e-09 1.44612e-08
-4.36837e-05 1.99486e-08 -5.09945e-08
-1.1443e-09 -3.81021e-06 2.10918e-07
-1.23835e-09 -3.61256e-06 1.96232e-07
-4.53218e-05 1.36406e-08 -4.63576e-08
-4.69444e-05 1.45407e-08 -8.68798e-08
-4.83209e-05 1.5231e-08 -1.46002e-07
-4.91248e-05 1.56279e-08 -2.31711e-07
-4.89561e-05 1.5612e-08 -3.46324e-07
-1.12065e-09 -2.88676e-06 1.53136e-07
-6.89041e-10 -1.57689e-06 8.11514e-08
6.97423e-11 1.44264e-07 -7.12692e-09
8.96091e-10 1.71912e-06 -8.03005e-08
-4.74039e-05 1.45037e-08 -4.82181e-07
-1.47131e-05 5.91378e-10 -7.33841e-09
-1.75357e-05 1.74327e-09 -2.20659e-08
-2.03874e-05 3.15858e-09 -4.67385e-08
-4.41444e-05 -6.47286e-09 -5.9876e-07
-1.16053e-09 -5.11813e-06 3.05839e-07
-1.33965e-09 -5.02374e-06 2.96306e-07
-1.34147e-09 -4.31334e-06 2.50022e-07
-1.03036e-09 -2.87919e-06 1.62935e-07
-2.29897e-05 1.97281e-09 -8.76701e-08
-2.49778e-05 4.87461e-09 -1.46309e-07
-2.59509e-05 7.79782e-09 -2.20364e-07
1.09872e-09 2.06738e-06 -8.96911e-08
-2.62785e-10 -4.938e-07 1.92709e-08
-3.90451e-05 -9.31864e-09 -6.84169e-07
-3.43957e-10 -8.50864e-07 4.69026e-08
5.44982e-10 1.23096e-06 -6.44664e-08
7.88755e-06 8.58606e-09 4.6165e-09
4.49976e-06 4.19287e-09 5.802e-09
8.71951e-07 6.79409e-10 1.94726e-09
-2.7729e-06 -1.74953e-09 -9.79454e-09
1.02683e-09 2.26116e-06 -1.13492e-07
-2.55583e-05 -4.26456e-08 -3.37517e-07
2.46812e-10 -4.36564e-07 1.523e-08
-1.6763e-09 3.04571e-06 -9.41594e-08
-5.95342e-09 1.17187e-05 -3.07343e-07
-6.60388e-05 -1.05107e-08 1.01639e-06
-5.69761e-05 -5.28348e-09 1.12318e-06
-1.56433e-09 3.07378e-06 -7.01052e-08
-3.70899e-09 7.58192e-06 -1.48124e-07
-7.54967e-09 1.71332e-05 -2.7042e-07
-9.08662e-05 -4.55589e-08 1.5272e-06
-7.70165e-05 -2.94793e-08 1.65943e-06
-3.23714e-09 8.92016e-06 -6.56331e-08
-4.8557e-09 1.45129e-05 -7.3078e-08
-7.12905e-09 2.49141e-05 -6.36164e-08
-0.000118068 -7.04604e-08 2.1242e-06
-9.86454e-05 -5.93442e-08 2.26064e-06
-2.08545e-09 2.42269e-05 2.98671e-07
-2.13227e-09 1.75526e-05 1.99217e-07
-1.51343e-09 3.53773e-05 4.67444e-07
-0.000121213 -7.95005e-08 2.86266e-06
-0.000146923 -9.51433e-08 2.74165e-06
9.38569e-09 3.70696e-05 1.20411e-06
6.30908e-09 2.93951e-05 9.77766e-07
1.38433e-08 4.87824e-05 1.52772e-06
-0.000143977 -1.00095e-07 3.37559e-06
-0.000176586 -1.21222e-07 3.28781e-06
3.54407e-08 5.33279e-05 2.93149e-06
2.82051e-08 4.48271e-05 2.59632e-06
-0.000204085 -1.33767e-07 3.59309e-06
-9.43772e-05 -5.99898e-08 2.64517e-06
-7.77228e-05 -3.49215e-08 2.12804e-06
-6.1468e-05 -1.3131e-08 1.59078e-06
6.97034e-08 6.39978e-05 5.43038e-06
-4.61627e-05 7.01513e-09 1.09735e-06
-9.75057e-09 4.29804e-05 -1.54942e-09
-2.13071e-10 5.36882e-05 7.45298e-07
4.85102e-10 -9.42582e-07 3.57542e-08
2.96462e-11 -5.99486e-08 2.43361e-09
-5.45601e-10 1.17471e-06 -5.01733e-08
-7.80513e-05 -2.83129e-08 6.18006e-07
-8.12886e-05 -2.56634e-08 4.54927e-07
-7.306e-05 -2.5867e-08 8.01621e-07
-6.88997e-10 1.56136e-06 -4.30726e-08
-9.16912e-10 2.11686e-06 -6.24157e-08
-6.8235e-10 1.55598e-06 -3.93233e-08
-0.00011927 -6.08008e-08 8.13773e-07
-0.000102557 -6.41982e-08 1.34393e-06
-0.000111962 -6.01794e-08 1.07531e-06
-1.9659e-09 6.26363e-06 -5.64009e-08
-1.73496e-09 5.22067e-06 -5.56996e-08
-1.673e-09 4.9035e-06 -5.94428e-08
-0.000135338 -9.7688e-08 1.92214e-06
-0.000150159 -9.34311e-08 1.58061e-06
-0.0001626 -8.37461e-08 1.23441e-06
-1.28651e-09 1.36781e-05 1.50092e-07
-1.52881e-09 1.14461e-05 1.16185e-07
-1.67127e-09 1.00766e-05 9.38913e-08
-0.00019188 -1.21517e-07 2.10882e-06
-0.000210551 -1.0788e-07 1.68804e-06
-0.000170642 -1.27505e-07 2.5115e-06
5.38079e-09 2.42881e-05 8.38889e-07
3.29529e-09 2.07753e-05 7.2502e-07
1.795e-09 1.8205e-05 6.37115e-07
-0.000207555 -1.59149e-07 3.04611e-06
-0.000236181 -1.53495e-07 2.60727e-06
-0.000262192 -1.38081e-07 2.1365e-06
2.38946e-08 3.85554e-05 2.36158e-06
1.80321e-08 3.37377e-05 2.1317e-06
1.33118e-08 2.98681e-05 1.92907e-06
-0.0002428 -1.74061e-07 3.35246e-06
-0.000279532 -1.69087e-07 2.90744e-06
-0.000313793 -1.53181e-07 2.42184e-06
-8.99053e-10 2.19838e-06 -9.7127e-08
-1.10665e-09 2.80077e-06 -1.27863e-07
-1.14764e-09 2.989e-06 -1.4024e-07
-8.31906e-05 -3.09704e-08 1.76281e-07
-8.41196e-05 -3.10448e-08 1.25687e-07
-8.44684e-05 -3.0612e-08 1.01851e-07
-9.47971e-10 2.66969e-06 -8.15698e-08
-1.2114e-09 2.9819e-06 -9.55268e-08
-1.38189e-09 3.01546e-06 -1.00598e-07
-0.000124901 -8.15096e-08 3.71914e-07
-0.000129099 -8.38346e-08 2.79594e-07
-0.000132334 -8.48582e-08 2.19043e-07
-1.16191e-09 4.78751e-06 -6.09719e-08
-1.54392e-09 4.61921e-06 -6.45031e-08
-1.83784e-09 4.32286e-06 -6.53881e-08
-0.000173023 -1.11085e-07 6.33282e-07
-0.000181582 -1.13416e-07 5.00987e-07
-0.000188769 -1.13781e-07 4.14252e-07
-5.52938e-10 9.09248e-06 8.5929e-08
-1.41905e-09 8.23945e-06 7.11123e-08
-2.0881e-09 7.4142e-06 5.76274e-08
-0.000226922 -1.41836e-07 9.18732e-07
-0.000241027 -1.44085e-07 7.5689e-07
-0.000253343 -1.43786e-07 6.59173e-07
3.35584e-09 1.61674e-05 5.84488e-07
1.00918e-09 1.44239e-05 5.1906e-07
-8.29254e-10 1.28565e-05 4.58315e-07
-0.000285716 -1.80387e-07 1.19778e-06
-0.000306635 -1.85088e-07 1.02417e-06
-0.000325374 -1.86661e-07 9.33275e-07
1.48931e-08 2.66229e-05 1.78635e-06
9.31115e-09 2.37972e-05 1.61565e-06
4.82214e-09 2.12722e-05 1.45397e-06
-0.000345538 -2.03018e-07 1.32667e-06
-0.000374457 -2.12253e-07 1.17091e-06
-0.000400879 -2.18407e-07 1.11949e-06
-0.000264165 -1.39795e-07 6.27264e-07
-0.00034218 -1.83097e-07 9.24293e-07
-0.000424965 -2.18878e-07 1.17342e-06
-0.000194892 -1.00559e-07 3.86655e-07
-0.000134923 -6.99776e-08 2.75048e-07
5.52781e-08 5.06932e-05 4.79316e-06
4.18394e-08 4.5507e-05 4.45724e-06
7.08565e-08 5.67414e-05 5.12713e-06
0.00206035 9.71103e-07 -1.06901e-05
3.01799e-08 3.69065e-05 3.82814e-06
2.06001e-08 3.32306e-05 3.51408e-06
4.17259e-08 4.09654e-05 4.14493e-06
0.0023081 1.03151e-06 -3.65407e-06
0.00223428 1.02279e-06 -4.73149e-06
0.00215228 9.95745e-07 -6.45306e-06
-6.06084e-10 2.20321e-06 -1.05538e-07
-8.65298e-10 2.87074e-06 -1.33681e-07
-7.3397e-10 2.57346e-06 -1.21664e-07
-8.45174e-05 -3.14158e-08 9.60038e-08
-8.44412e-05 -2.61321e-08 7.65623e-08
-8.43205e-05 -2.14348e-08 9.05313e-08
-8.42093e-05 -1.64409e-08 1.03414e-07
-8.43057e-10 2.83091e-06 -9.45262e-08
-8.09059e-10 2.51642e-06 -8.58462e-08
-7.47109e-10 2.15073e-06 -7.47875e-08
-0.000137121 -6.03827e-08 2.14652e-07
-0.000138955 -4.51683e-08 2.0071e-07
-0.000140552 -2.84876e-08 1.80328e-07
-9.35625e-10 3.91483e-06 -6.01774e-08
-9.92562e-10 3.44398e-06 -5.49783e-08
-1.00127e-09 2.95985e-06 -4.89702e-08
-0.000200324 -9.24876e-08 3.78249e-07
-0.000204992 -7.09919e-08 3.59148e-07
-0.000209099 -4.65909e-08 3.30141e-07
-8.06764e-10 6.59491e-06 5.04413e-08
-1.07401e-09 5.79303e-06 4.19527e-08
-1.24645e-09 5.0291e-06 3.40897e-08
-0.00027392 -1.31416e-07 5.83513e-07
-0.000282452 -1.02558e-07 5.67352e-07
-0.000290024 -6.8917e-08 5.38507e-07
6.55646e-10 1.14135e-05 4.10823e-07
-2.53504e-10 1.00734e-05 3.62048e-07
-9.31444e-10 8.83042e-06 3.15663e-07
-0.000357522 -1.72597e-07 7.92987e-07
-0.000371118 -1.36166e-07 8.0126e-07
-0.000383279 -9.28538e-08 7.9727e-07
1.37756e-09 1.49091e-05 1.04909e-06
5.74166e-09 1.89773e-05 1.31922e-06
3.29812e-09 1.68656e-05 1.18168e-06
-0.000447199 -2.03472e-07 9.19175e-07
-0.000467126 -1.61392e-07 9.83056e-07
-0.000485091 -1.10464e-07 1.03937e-06
-3.88507e-10 1.83022e-06 -8.86042e-08
-2.85227e-10 1.49144e-06 -7.29135e-08
-2.06088e-10 1.20005e-06 -5.91645e-08
-8.41245e-05 -1.91723e-08 2.5515e-08
-8.40549e-05 -1.97802e-08 6.92435e-08
-8.39955e-05 -2.00882e-08 1.083e-07
-4.07566e-10 1.78815e-06 -6.30924e-08
-3.20963e-10 1.45793e-06 -5.21235e-08
-2.48942e-10 1.17145e-06 -4.23493e-08
-0.000141969 -4.00858e-08 1.27333e-07
-0.000143197 -4.20541e-08 1.70886e-07
-0.000144253 -4.2931e-08 2.01185e-07
-5.06382e-10 2.49799e-06 -4.25644e-08
-4.27564e-10 2.07702e-06 -3.60879e-08
-3.54707e-10 1.70376e-06 -3.01069e-08
-0.00021274 -6.58746e-08 2.21162e-07
-0.000215906 -6.89186e-08 2.7614e-07
-0.000218634 -6.99192e-08 3.09899e-07
-5.66565e-10 4.31853e-06 2.88161e-08
-5.29742e-10 3.66715e-06 2.35708e-08
-4.80537e-10 3.07503e-06 1.89433e-08
-0.000296765 -9.66075e-08 3.40027e-07
-0.000302649 -1.00479e-07 4.13134e-07
-0.000307737 -1.0109e-07 4.57517e-07
-1.15164e-10 7.67998e-06 2.77473e-07
-2.86082e-10 6.6142e-06 2.38836e-07
-3.90244e-10 5.62516e-06 2.02505e-07
-0.000394165 -1.28606e-07 4.7223e-07
-0.000403708 -1.34192e-07 5.88517e-07
-0.000411995 -1.35493e-07 6.73762e-07
1.96237e-09 1.30857e-05 9.34151e-07
1.15792e-09 1.13747e-05 8.16369e-07
5.4999e-10 9.75997e-06 7.02448e-07
-0.000501267 -1.5165e-07 5.40517e-07
-0.000515518 -1.61381e-07 7.31215e-07
-0.000527944 -1.66342e-07 8.93972e-07
0.00237438 1.07841e-06 -2.52727e-06
1.82214e-08 2.98599e-05 3.20568e-06
1.28449e-08 2.6733e-05 2.91758e-06
8.46815e-09 2.38068e-05 2.63158e-06
0.00243478 1.09389e-06 -2.59955e-06
0.00248832 9.05936e-07 -2.43388e-06
0.00253599 6.89409e-07 -2.22924e-06
7.88767e-09 2.10465e-05 2.35151e-06
5.52887e-09 1.84192e-05 2.08125e-06
3.6348e-09 1.59034e-05 1.81236e-06
0.00261543 5.20082e-07 -1.73379e-06
0.00264733 5.42811e-07 -2.38188e-06
0.00257847 4.7433e-07 -9.82047e-07
-1.11526e-10 9.5495e-07 -4.74318e-08
-7.36399e-11 7.48395e-07 -3.73505e-08
-4.60992e-11 5.70865e-07 -2.85963e-08
-8.39492e-05 -9.88508e-09 -1.05801e-08
-8.38978e-05 -5.07079e-09 4.82757e-08
-8.38501e-05 -1.23646e-10 1.04285e-07
-9.69034e-11 9.28489e-07 -3.37026e-08
-6.71701e-11 7.23071e-07 -2.63896e-08
-4.45381e-11 5.4731e-07 -2.00607e-08
-0.000145167 -2.38039e-08 3.12843e-09
-0.000145896 -7.31574e-09 5.96244e-08
-0.000146468 9.80497e-09 1.0821e-07
-1.03808e-10 1.37664e-06 -2.41758e-08
-7.91285e-11 1.08964e-06 -1.93323e-08
-5.78332e-11 8.35288e-07 -1.49757e-08
-0.00022099 -4.70644e-08 4.02017e-08
-0.000222894 -2.11774e-08 1.29213e-07
-0.000224402 5.94486e-09 2.08674e-07
-6.40594e-11 2.53725e-06 1.63358e-08
-6.8807e-11 2.04598e-06 1.29695e-08
-6.55745e-11 1.5929e-06 9.83473e-09
-0.000312131 -7.2663e-08 9.05193e-08
-0.000315707 -3.46337e-08 2.27128e-07
-0.000318549 5.43235e-09 3.53266e-07
2.35939e-10 4.70311e-06 1.71615e-07
1.1209e-10 3.837e-06 1.40351e-07
2.78381e-11 3.01667e-06 1.10188e-07
-0.000419154 -9.80464e-08 1.26191e-07
-0.000425014 -4.69665e-08 3.3997e-07
-0.000429683 7.05184e-09 5.43791e-07
1.23922e-09 8.22648e-06 5.99133e-07
7.63852e-10 6.75918e-06 4.94797e-07
4.08373e-10 5.34563e-06 3.92064e-07
-0.000538695 -1.19215e-07 8.49603e-08
-0.000547539 -5.70381e-08 4.18891e-07
-0.000554602 8.81817e-09 7.46853e-07
-2.55703e-11 4.13587e-07 -2.07867e-08
-1.2364e-11 2.69425e-07 -1.3593e-08
-4.04914e-12 1.3296e-07 -6.72838e-09
-8.38096e-05 -9.43387e-09 -7.03963e-08
-8.37804e-05 -7.60308e-09 -1.01559e-08
-8.37652e-05 -5.66656e-09 4.83328e-08
-2.66641e-11 3.93439e-07 -1.44707e-08
-1.47016e-11 2.54613e-07 -9.39463e-09
-5.97721e-12 1.25105e-07 -4.62787e-09
-0.000146889 -3.53227e-08 -4.93308e-08
-0.000147169 -2.77538e-08 1.36227e-09
-0.000147308 -1.99556e-08 5.00078e-08
-3.8857e-11 6.05951e-07 -1.09521e-08
-2.43328e-11 3.94492e-07 -7.14169e-09
-1.14832e-11 1.94487e-07 -3.53411e-09
-0.000225523 -6.51789e-08 -4.91052e-08
-0.000226268 -5.25849e-08 3.70858e-08
-0.000226639 -3.95427e-08 1.20689e-07
-5.64959e-11 1.1696e-06 7.03267e-09
-4.29806e-11 7.68002e-07 4.6575e-09
-2.41027e-11 3.8057e-07 2.28839e-09
-0.000320667 -9.55353e-08 -5.96669e-08
-0.000322079 -7.60209e-08 7.97903e-08
-0.000322782 -5.57634e-08 2.15626e-07
-2.65842e-11 2.23212e-06 8.13183e-08
-4.59696e-11 1.4738e-06 5.39698e-08
-3.67392e-11 7.32733e-07 2.68394e-08
-0.000433172 -1.25967e-07 -9.89077e-08
-0.000435499 -9.97844e-08 1.27507e-07
-0.000436661 -7.24967e-08 3.48927e-07
1.47274e-10 3.97383e-06 2.91591e-07
5.42809e-12 2.63257e-06 1.94095e-07
-4.2715e-11 1.31147e-06 9.67927e-08
-0.000559891 -1.53128e-07 -2.14622e-07
-0.000563421 -1.23748e-07 1.50224e-07
-0.000565185 -9.29203e-08 5.09544e-07
-1.08559e-15 1.23405e-10 7.21945e-13
-2.07256e-15 2.16277e-10 7.8839e-12
3.76912e-09 1.34786e-05 1.55139e-06
2.4457e-09 1.11275e-05 1.28955e-06
1.42125e-09 8.8354e-06 1.02781e-06
0.00267479 7.54297e-07 2.96175e-08
0.00269712 4.80205e-07 -8.15055e-07
0.00271484 1.96337e-07 -1.60697e-06
7.39352e-10 6.58848e-06 7.67998e-07
2.41242e-10 4.3743e-06 5.12488e-07
-3.54459e-12 2.18183e-06 2.56068e-07
0.00272808 3.85571e-07 1.4461e-07
0.00273687 2.74567e-07 -5.28396e-07
0.00274125 1.59711e-07 -1.18016e-06
1.39082e-16 1.90988e-11 -9.71393e-13
-3.15334e-12 -1.32926e-07 6.75643e-09
-1.06223e-11 -2.69396e-07 1.36681e-08
-2.29797e-11 -4.13564e-07 2.09209e-08
3.62766e-16 3.28095e-11 -1.21603e-12
5.71436e-16 6.51571e-11 -1.19104e-12
-2.41665e-15 3.53651e-10 2.60309e-11
-8.37653e-05 5.09724e-09 -4.65851e-08
-8.37805e-05 7.20146e-09 1.14655e-08
-8.38097e-05 9.20152e-09 7.12696e-08
-5.75179e-12 -1.25039e-07 4.6259e-09
-1.42034e-11 -2.54547e-07 9.39171e-09
-2.58372e-11 -3.93371e-07 1.44659e-08
-0.000147308 1.9025e-08 -4.74456e-08
-0.000147169 2.7123e-08 5.35465e-10
-0.00014689 3.49939e-08 5.05505e-08
-1.10953e-11 -1.94356e-07 3.53258e-09
-2.3489e-11 -3.94361e-07 7.139e-09
-3.74785e-11 -6.0582e-07 1.09468e-08
-0.000226639 3.82001e-08 -1.17404e-07
-0.000226268 5.17094e-08 -3.46782e-08
-0.000225523 6.47726e-08 5.05908e-08
-2.32746e-11 -3.80323e-07 -2.28526e-09
-4.12016e-11 -7.67756e-07 -4.65622e-09
-5.3635e-11 -1.16935e-06 -7.03577e-09
-0.000322783 5.40282e-08 -2.11872e-07
-0.000322079 7.49503e-08 -7.70988e-08
-0.000320668 9.51313e-08 6.1204e-08
-3.53917e-11 -7.32302e-07 -2.67913e-08
-4.39832e-11 -1.47337e-06 -5.39134e-08
-2.46958e-11 -2.23169e-06 -8.12706e-08
-0.000436658 7.08138e-08 -3.28691e-07
-0.000435497 9.89573e-08 -1.0782e-07
-0.000433171 1.26026e-07 1.17295e-07
-3.98538e-11 -1.31077e-06 -9.66842e-08
9.96272e-12 -2.63187e-06 -1.9397e-07
1.522e-10 -3.97314e-06 -2.9148e-07
-0.00056518 9.13217e-08 -4.88715e-07
-0.000563415 1.23168e-07 -1.29041e-07
-0.000559884 1.53621e-07 2.34942e-07
-4.25478e-11 -5.70849e-07 2.87987e-08
-6.88322e-11 -7.48385e-07 3.76273e-08
-1.0487e-10 -9.54948e-07 4.77858e-08
-8.38503e-05 -6.64753e-11 -1.03792e-07
-8.38981e-05 4.94954e-09 -4.79105e-08