# vtk DataFile Version 3.0
vtk output
ASCII
DATASET POLYDATA
POINTS 17069 float
0.173851 0.855014 -0.047916
0.163225 0.860097 -0.0477282
0.173948 0.845021 -0.0473886
0.163326 0.850108 -0.0472449
0.152742 0.855193 -0.0469067
0.174019 0.835027 -0.0469319
0.163436 0.840109 -0.0467678
0.17413 0.825028 -0.0463452
0.163562 0.830114 -0.0462004
0.152861 0.845199 -0.0464566
0.142173 0.860286 -0.046193
0.174219 0.815031 -0.0458221
0.152988 0.835203 -0.0459654
0.163634 0.820119 -0.0458203
0.153135 0.825203 -0.0454008
0.142312 0.850296 -0.0457742
0.174299 0.805041 -0.0452635
0.163748 0.810119 -0.0452629
0.142449 0.840293 -0.0453269
0.16388 0.800123 -0.0446635
0.153244 0.815212 -0.0449318
0.131845 0.855381 -0.0447732
0.142593 0.830297 -0.044795
0.174397 0.795045 -0.0446765
0.153396 0.805217 -0.0443331
0.13199 0.845385 -0.0443372
0.142729 0.820296 -0.044286
0.184719 0.799953 -0.0453554
0.195254 0.80487 -0.0455244
0.195399 0.794872 -0.0448572
0.205838 0.799793 -0.0449941
0.216241 0.804726 -0.045105
0.184858 0.789962 -0.0446889
0.205938 0.7898 -0.0443966
0.216336 0.794729 -0.0444761
0.226688 0.799662 -0.0445715
0.236941 0.804592 -0.0448402
0.257456 0.804464 -0.0448375
0.277868 0.804351 -0.0447931
0.247256 0.799535 -0.0444938
0.267709 0.799413 -0.0444504
0.28805 0.79931 -0.0445321
0.184589 0.809946 -0.0460483
0.205709 0.80978 -0.045647
0.2266 0.809649 -0.0452236
0.184115 0.859927 -0.0489393
0.184219 0.849938 -0.0484054
0.184304 0.839936 -0.0479002
0.184399 0.829944 -0.0472606
0.184479 0.819949 -0.0466731
0.195068 0.814858 -0.0461873
0.216143 0.814713 -0.0457206
0.194681 0.854838 -0.0486101
0.194711 0.844841 -0.0480611
0.205109 0.859742 -0.0488259
0.226186 0.859598 -0.0484169
0.205211 0.849751 -0.0482255
0.215748 0.854674 -0.0483079
0.215832 0.844683 -0.0476653
0.22627 0.849614 -0.0477698
0.194766 0.834847 -0.0474681
0.205341 0.839759 -0.0476004
0.205464 0.829765 -0.0469236
0.21594 0.834694 -0.0470232
0.226353 0.839624 -0.0471372
0.194935 0.824855 -0.0468101
0.216033 0.824701 -0.0463813
0.226434 0.829633 -0.0465091
0.205603 0.819777 -0.046262
0.22652 0.819646 -0.0458389
0.247176 0.809516 -0.0451758
0.288008 0.809293 -0.0451651
0.26765 0.809401 -0.0450838
0.236616 0.854539 -0.0480354
0.236674 0.844555 -0.0473818
0.236744 0.834566 -0.0467239
0.236868 0.814583 -0.0454513
0.287974 0.819288 -0.0457568
0.257396 0.814453 -0.0454559
0.277823 0.814344 -0.0453937
0.236801 0.824572 -0.0460985
0.246911 0.85946 -0.0483733
0.257212 0.854406 -0.0480012
0.267461 0.859349 -0.0481597
0.287876 0.859245 -0.0481889
0.246958 0.849477 -0.0477136
0.287902 0.849257 -0.0475758
0.2777 0.854305 -0.0478336
0.257252 0.84442 -0.0473447
0.277731 0.844312 -0.0472248
0.267489 0.849366 -0.0475234
0.247002 0.839487 -0.0470754
0.267525 0.839371 -0.0469045
0.287917 0.839266 -0.0469642
0.247064 0.829499 -0.0464288
0.287944 0.829278 -0.0463606
0.257294 0.834433 -0.0466958
0.277753 0.834324 -0.0466085
0.257344 0.824441 -0.0460818
0.277789 0.824333 -0.0460001
0.267559 0.829386 -0.046287
0.247118 0.819512 -0.0457883
0.267605 0.819393 -0.0456795
0.318496 0.804188 -0.0451968
0.338733 0.804126 -0.0452446
0.308331 0.799246 -0.0447768
0.328647 0.79917 -0.0448971
0.298127 0.80427 -0.0450554
0.298198 0.794284 -0.0444247
0.318561 0.794211 -0.0445297
0.338778 0.794146 -0.0445715
0.379166 0.804006 -0.0454458
0.379181 0.79402 -0.044798
0.369048 0.799042 -0.0449788
0.389255 0.799002 -0.0449653
0.358948 0.804066 -0.0451589
0.369072 0.789054 -0.0443765
0.389261 0.789014 -0.0443658
0.358973 0.79408 -0.0445228
0.348883 0.799109 -0.044734
0.338702 0.814115 -0.0458589
0.308269 0.809231 -0.0454152
0.328602 0.809154 -0.0455628
0.328547 0.819137 -0.0461927
0.298033 0.814251 -0.045668
0.318446 0.814182 -0.0458268
0.30821 0.819225 -0.0460171
0.318374 0.824168 -0.0464808
0.33865 0.824097 -0.0465044
0.297963 0.82424 -0.0462733
0.297813 0.854194 -0.0480668
0.307923 0.859153 -0.0485396
0.328364 0.859076 -0.048794
0.328399 0.849087 -0.0481348
0.31822 0.854133 -0.0484272
0.338537 0.854055 -0.0484478
0.318263 0.84414 -0.0477949
0.338568 0.844066 -0.0478136
0.307995 0.849178 -0.0478927
0.297817 0.844205 -0.0474698
0.32845 0.839105 -0.0474802
0.29787 0.834217 -0.0468644
0.318328 0.834157 -0.0471292
0.338612 0.834086 -0.0471527
0.308069 0.839194 -0.0472573
0.308119 0.829209 -0.046634
0.328501 0.829127 -0.0468179
0.379158 0.813987 -0.0460715
0.38925 0.808979 -0.0456483
0.358919 0.814046 -0.0457974
0.348839 0.809086 -0.0454463
0.369019 0.809027 -0.0456265
0.369001 0.819011 -0.0462422
0.389242 0.81897 -0.0462511
0.348808 0.819078 -0.0460769
0.37914 0.823979 -0.0466931
0.35889 0.824037 -0.0464121
0.37913 0.853932 -0.0486282
0.348684 0.859012 -0.0487383
0.368932 0.858952 -0.0487799
0.389236 0.858911 -0.0488407
0.38924 0.848925 -0.0481931
0.358831 0.85399 -0.0483202
0.379131 0.843949 -0.0479872
0.348712 0.849033 -0.0480605
0.368943 0.848972 -0.0481291
0.379138 0.833961 -0.0473441
0.348736 0.839042 -0.0474079
0.358849 0.844007 -0.0476825
0.368958 0.838983 -0.0475
0.389236 0.838941 -0.0475392
0.358866 0.834019 -0.0470451
0.348767 0.829062 -0.0467252
0.368975 0.829002 -0.0468491
0.389233 0.828961 -0.0468774
0.409403 0.808948 -0.045712
0.429569 0.808925 -0.0457772
0.399301 0.803974 -0.0453051
0.4195 0.803944 -0.0455029
0.439629 0.80393 -0.045453
0.419509 0.793959 -0.0448557
0.439629 0.793945 -0.0448015
0.409421 0.798973 -0.0450406
0.42957 0.79895 -0.0451059
0.409431 0.788985 -0.0444441
0.429576 0.788962 -0.0444761
0.39934 0.793997 -0.0446528
0.449686 0.808912 -0.0457321
0.469813 0.808903 -0.0457386
0.489924 0.808907 -0.0457141
0.459743 0.803916 -0.0454855
0.479851 0.803916 -0.0453868
0.459738 0.793931 -0.0448379
0.499925 0.793936 -0.0447996
0.449675 0.798938 -0.0450536
0.469786 0.798928 -0.0450709
0.48988 0.798931 -0.0450478
0.449676 0.78895 -0.0444246
0.469777 0.78894 -0.0444474
0.489861 0.788942 -0.0444305
0.479815 0.793938 -0.0447308
0.419493 0.813924 -0.046138
0.439638 0.81391 -0.0460974
0.39928 0.813962 -0.0459205
0.409391 0.818939 -0.0463131
0.429566 0.818915 -0.0463898
0.399247 0.823943 -0.0465652
0.419484 0.823914 -0.0467668
0.439638 0.8239 -0.0467364
0.409375 0.82892 -0.0469564
0.429567 0.828897 -0.0470388
0.419478 0.833894 -0.0474205
0.439648 0.833879 -0.0473951
0.399227 0.83393 -0.0472109
0.409366 0.838906 -0.0476074
0.429567 0.838883 -0.0476845
0.399195 0.843911 -0.0478663
0.419473 0.843882 -0.0480495
0.439649 0.843868 -0.0480322
0.3992 0.8539 -0.0485007
0.419465 0.853865 -0.048685
0.439654 0.85385 -0.0486732
0.40934 0.858875 -0.0488941
0.42957 0.858852 -0.0489748
0.409347 0.84889 -0.0482496
0.429568 0.848867 -0.0483279
0.459761 0.813896 -0.0461244
0.499996 0.813904 -0.0460712
0.479863 0.813905 -0.0460134
0.449686 0.818903 -0.0463538
0.46982 0.818895 -0.0463512
0.489938 0.818899 -0.0463231
0.459764 0.823886 -0.0467503
0.479897 0.823888 -0.0466496
0.500015 0.823894 -0.0466963
0.449695 0.828884 -0.047009
0.469845 0.828878 -0.046992
0.489978 0.828882 -0.0469635
0.459782 0.833866 -0.0473967
0.479907 0.833875 -0.0472868
0.469854 0.83886 -0.0476456
0.449697 0.83887 -0.0476616
0.489992 0.838868 -0.0476064
0.45979 0.843855 -0.0480234
0.479941 0.843856 -0.0479269
0.459812 0.853838 -0.0486548
0.479977 0.85384 -0.0485592
0.449721 0.858838 -0.048961
0.469892 0.858832 -0.0489154
0.490047 0.858837 -0.0488879
0.449711 0.848854 -0.0483106
0.469881 0.848848 -0.0482741
0.490033 0.848852 -0.0482469
0.500001 0.853848 -0.0485943
0.510075 0.808907 -0.0457168
0.530186 0.808904 -0.0457412
0.550314 0.808912 -0.0457331
0.500054 0.803922 -0.0454451
0.520148 0.803916 -0.0453885
0.540257 0.803916 -0.0454867
0.540261 0.793931 -0.0448411
0.51012 0.798931 -0.0450524
0.530214 0.798928 -0.0450749
0.550324 0.798938 -0.0450566
0.510138 0.788942 -0.0444335
0.530223 0.78894 -0.0444497
0.550323 0.788951 -0.0444262
0.520184 0.793938 -0.0447345
0.57043 0.808925 -0.045777
0.590596 0.808948 -0.0457119
0.56037 0.803931 -0.0454524
0.580499 0.803945 -0.0455009
0.600698 0.803974 -0.0453043
0.560371 0.793946 -0.0448032
0.58049 0.79396 -0.0448558
0.570429 0.79895 -0.045107
0.590578 0.798973 -0.0450397
0.570424 0.788963 -0.0444761
0.590569 0.788985 -0.0444428
0.600659 0.793997 -0.0446521
0.499991 0.843864 -0.0479719
0.499984 0.833875 -0.0473335
0.540239 0.813896 -0.0461242
0.520136 0.813905 -0.0460132
0.510061 0.818899 -0.046319
0.530179 0.818895 -0.0463478
0.550313 0.818903 -0.0463484
0.520102 0.823888 -0.0466461
0.540235 0.823886 -0.0467476
0.510021 0.828882 -0.0469594
0.530154 0.828878 -0.0469895
0.550304 0.828885 -0.0470047
0.540217 0.833866 -0.0473952
0.520092 0.833875 -0.0472836
0.530145 0.83886 -0.0476438
0.510007 0.838868 -0.047602
0.550302 0.83887 -0.0476581
0.520058 0.843857 -0.0479243
0.54021 0.843855 -0.0480226
0.520023 0.85384 -0.0485567
0.540188 0.853838 -0.0486539
0.509952 0.858837 -0.0488848
0.530107 0.858833 -0.0489134
0.550278 0.858838 -0.0489556
0.509966 0.848853 -0.0482429
0.530118 0.848848 -0.0482725
0.550288 0.848854 -0.0483067
0.560361 0.81391 -0.0460954
0.580506 0.813925 -0.0461352
0.600719 0.813962 -0.0459194
0.570433 0.818916 -0.0463849
0.590608 0.818939 -0.0463093
0.560362 0.8239 -0.0467319
0.580515 0.823915 -0.0467626
0.600752 0.823943 -0.0465622
0.570432 0.828898 -0.0470354
0.590624 0.828921 -0.0469535
0.560351 0.83388 -0.0473917
0.580521 0.833894 -0.0474179
0.600772 0.83393 -0.0472086
0.570432 0.838884 -0.0476825
0.590633 0.838907 -0.0476051
0.560351 0.843868 -0.0480294
0.580526 0.843882 -0.0480476
0.600804 0.843911 -0.0478639
0.560345 0.85385 -0.04867
0.580534 0.853865 -0.0486831
0.570429 0.858852 -0.0489717
0.59066 0.858875 -0.0488918
0.570431 0.848867 -0.0483259
0.590652 0.84889 -0.0482471
0.600799 0.8539 -0.0484986
0.620833 0.804006 -0.0454448
0.620818 0.79402 -0.0447971
0.610745 0.799002 -0.0449642
0.630951 0.799043 -0.0449767
0.641051 0.804066 -0.0451572
0.610738 0.789014 -0.0443646
0.630928 0.789054 -0.0443734
0.641026 0.79408 -0.0445205
0.651116 0.799109 -0.0447321
0.661266 0.804127 -0.0452427
0.681503 0.804189 -0.045196
0.671352 0.799171 -0.0448951
0.691668 0.799247 -0.0447757
0.701872 0.804271 -0.045055
[...]
POINT_DATA 17069
VECTORS alpha float
-2.73685e-07 1.93839e-05 -1.34896e-06
1.58194e-06 -1.15578e-08 1.90092e-08
-2.42671e-07 1.9418e-05 -1.30046e-06
1.55339e-06 -1.11321e-08 2.97111e-08
-3.02968e-07 1.84039e-05 -1.28437e-06
-2.16397e-07 1.94504e-05 -1.29586e-06
1.51859e-06 -1.06497e-08 3.72556e-08
-2.08301e-07 1.94857e-05 -1.2956e-06
1.494e-06 -1.02765e-08 4.10922e-08
-2.87375e-07 1.84387e-05 -1.23877e-06
1.50618e-06 -1.08364e-08 -4.35539e-08
-1.98159e-07 1.95185e-05 -1.296e-06
-2.63067e-07 1.84708e-05 -1.23026e-06
1.46143e-06 -9.91356e-09 5.08794e-08
-2.63729e-07 1.85051e-05 -1.27234e-06
1.47958e-06 -1.04398e-08 -3.02628e-08
-1.9986e-07 1.95506e-05 -1.31403e-06
1.42917e-06 -9.5762e-09 5.34966e-08
1.44817e-06 -1.00349e-08 -2.02161e-08
1.38283e-06 -9.15815e-09 5.35104e-08
-2.63305e-07 1.85353e-05 -1.28732e-06
-2.75826e-07 1.65566e-05 -1.11823e-06
1.42485e-06 -9.66385e-09 -1.46989e-08
-2.05631e-07 1.95815e-05 -1.3301e-06
-2.58687e-07 1.85672e-05 -1.25228e-06
-2.70873e-07 1.659e-05 -1.09998e-06
1.39364e-06 -9.26888e-09 -7.61751e-09
1.44727e-06 -9.70692e-09 9.21901e-08
-1.75307e-07 1.93632e-05 -1.34754e-06
-1.82611e-07 1.93939e-05 -1.34862e-06
1.4844e-06 -9.23751e-09 7.97799e-08
-1.20136e-07 1.81922e-05 -1.23267e-06
1.41931e-06 -9.40367e-09 9.07579e-08
1.4565e-06 -8.91633e-09 7.79489e-08
-1.19844e-07 1.82204e-05 -1.22673e-06
1.5199e-06 -8.48123e-09 5.43713e-08
-6.88097e-08 1.6445e-05 -1.10448e-06
-5.90332e-08 1.45088e-05 -9.856e-07
-3.07305e-08 1.26578e-05 -8.44326e-07
1.56124e-06 -7.7877e-09 3.88971e-08
1.60005e-06 -6.80125e-09 3.14419e-08
1.63794e-06 -5.76485e-09 2.51333e-08
1.49675e-06 -1.01736e-08 9.50192e-08
1.53581e-06 -9.66929e-09 8.29597e-08
1.57105e-06 -8.8139e-09 5.68532e-08
1.66056e-06 -1.23384e-08 8.11549e-08
1.63016e-06 -1.19102e-08 8.80671e-08
1.59383e-06 -1.14062e-08 9.23534e-08
1.5671e-06 -1.1021e-08 9.35691e-08
1.53148e-06 -1.0595e-08 9.64517e-08
-1.52877e-07 1.93302e-05 -1.32347e-06
-1.14138e-07 1.81622e-05 -1.23213e-06
-1.73337e-07 1.91954e-05 -1.32667e-06
-1.52528e-07 1.923e-05 -1.30152e-06
1.71397e-06 -1.17696e-08 8.3396e-08
1.75124e-06 -1.04714e-08 5.83966e-08
1.67991e-06 -1.12581e-08 8.53494e-08
-1.14636e-07 1.80359e-05 -1.24866e-06
-1.13547e-07 1.80693e-05 -1.24473e-06
1.71516e-06 -1.01074e-08 5.80836e-08
-1.38022e-07 1.92626e-05 -1.30809e-06
1.63917e-06 -1.07958e-08 8.58078e-08
1.61059e-06 -1.0391e-08 8.45167e-08
-1.10239e-07 1.81002e-05 -1.24739e-06
1.67478e-06 -9.76801e-09 5.77779e-08
-1.47467e-07 1.92971e-05 -1.32198e-06
-1.11066e-07 1.8132e-05 -1.24006e-06
1.64623e-06 -9.42915e-09 5.71068e-08
1.57144e-06 -1.00316e-08 8.32328e-08
1.60735e-06 -9.14659e-09 5.59893e-08
1.61381e-06 -8.04814e-09 4.1426e-08
1.6926e-06 -5.95281e-09 2.65087e-08
1.65396e-06 -7.17006e-09 3.25757e-08
-6.90689e-08 1.63015e-05 -1.08641e-06
-6.79561e-08 1.63321e-05 -1.09178e-06
-6.3633e-08 1.6361e-05 -1.10205e-06
-6.382e-08 1.64171e-05 -1.09871e-06
1.73147e-06 -6.17565e-09 2.61511e-08
-5.49846e-08 1.4483e-05 -9.78606e-07
-2.71026e-08 1.26355e-05 -8.31486e-07
-6.09922e-08 1.63901e-05 -1.10125e-06
1.79583e-06 -9.38949e-09 4.18872e-08
-5.39911e-08 1.43789e-05 -9.75446e-07
1.83761e-06 -8.58394e-09 3.35292e-08
1.87851e-06 -7.20903e-09 2.75854e-08
1.75965e-06 -9.08803e-09 4.19236e-08
1.84145e-06 -6.84824e-09 2.75314e-08
-3.08328e-08 1.25407e-05 -8.34762e-07
-5.22779e-08 1.44051e-05 -9.77455e-07
-2.70862e-08 1.25651e-05 -8.31717e-07
1.80107e-06 -8.2676e-09 3.31542e-08
1.71945e-06 -8.85559e-09 4.20448e-08
1.76126e-06 -7.96513e-09 3.27802e-08
1.80154e-06 -6.65537e-09 2.71741e-08
1.69075e-06 -8.57835e-09 4.18628e-08
1.77155e-06 -6.36077e-09 2.71406e-08
-5.43552e-08 1.44312e-05 -9.81855e-07
-2.80149e-08 1.25888e-05 -8.3416e-07
-5.28835e-08 1.44579e-05 -9.78585e-07
-2.58733e-08 1.26129e-05 -8.31461e-07
1.7317e-06 -7.69574e-09 3.25136e-08
1.65146e-06 -8.34741e-09 4.07088e-08
1.69221e-06 -7.37148e-09 3.22225e-08
-1.09484e-08 9.60447e-06 -6.64143e-07
-9.73851e-09 8.36977e-06 -5.84543e-07
1.66902e-06 -4.5025e-09 2.22845e-08
1.70124e-06 -4.18871e-09 2.61321e-08
-9.09168e-09 1.10162e-05 -7.38386e-07
-1.11303e-08 1.1036e-05 -7.34023e-07
-1.25986e-08 9.62159e-06 -6.62977e-07
-1.04129e-08 8.3851e-06 -5.8393e-07
-1.13211e-08 6.19445e-06 -4.29468e-07
-1.14956e-08 6.20622e-06 -4.27464e-07
1.74911e-06 -2.93171e-09 1.97021e-08
1.77305e-06 -2.68802e-09 1.60042e-08
-5.26184e-09 7.25209e-06 -5.02217e-07
1.71984e-06 -2.82985e-09 2.10317e-08
1.74317e-06 -2.57549e-09 1.65163e-08
-5.99147e-09 7.26578e-06 -4.99534e-07
1.72396e-06 -3.81017e-09 1.85359e-08
-8.69261e-09 8.35419e-06 -5.82693e-07
1.72527e-06 -4.71e-09 2.19817e-08
1.75874e-06 -4.3729e-09 2.69866e-08
1.80075e-06 -4.55832e-09 2.63571e-08
-5.5492e-09 1.09964e-05 -7.27411e-07
-9.46018e-09 9.58616e-06 -6.61702e-07
1.76499e-06 -4.88905e-09 1.9914e-08
-8.14475e-09 9.56809e-06 -6.57107e-07
-6.66562e-09 8.33872e-06 -5.78122e-07
-3.32884e-09 1.09757e-05 -7.20712e-07
-1.24276e-09 1.09115e-05 -7.18583e-07
1.92033e-06 -5.92577e-09 1.43428e-08
1.95736e-06 -5.33851e-09 2.31025e-08
1.91803e-06 -5.1484e-09 2.39171e-08
-4.70642e-09 9.50988e-06 -6.50382e-07
-3.46094e-09 8.28806e-06 -5.76905e-07
-4.47368e-09 9.52955e-06 -6.48547e-07
-3.51925e-09 8.30505e-06 -5.75178e-07
1.87992e-06 -5.55511e-09 1.5272e-08
1.44196e-09 1.09327e-05 -7.13048e-07
1.87487e-06 -4.92866e-09 2.48451e-08
-1.26644e-09 1.09545e-05 -7.14329e-07
-6.87013e-09 9.54872e-06 -6.52855e-07
-5.48017e-09 8.3217e-06 -5.74156e-07
1.83753e-06 -5.30467e-09 1.71192e-08
1.80717e-06 -5.08594e-09 1.82734e-08
1.84293e-06 -4.77528e-09 2.55312e-08
-1.0569e-08 6.18294e-06 -4.27065e-07
1.83378e-06 -2.7254e-09 1.74341e-08
-3.95069e-09 7.2386e-06 -5.02051e-07
1.78311e-06 -3.87807e-09 2.01299e-08
1.80813e-06 -3.06256e-09 1.97437e-08
1.85094e-06 -3.11418e-09 1.88879e-08
1.87686e-06 -2.85661e-09 1.71749e-08
1.8247e-06 -4.0124e-09 1.9653e-08
-9.96035e-09 6.17078e-06 -4.25375e-07
-2.75345e-09 7.2245e-06 -5.02381e-07
-9.62228e-09 6.13262e-06 -4.23112e-07
1.98374e-06 -4.55432e-09 1.90084e-08
2.01012e-06 -3.5903e-09 1.62262e-08
2.0383e-06 -3.23346e-09 1.90774e-08
1.9971e-06 -3.0851e-09 1.88877e-08
-1.85291e-11 7.18023e-06 -5.07287e-07
-9.0751e-09 6.14521e-06 -4.23519e-07
1.94276e-06 -4.3954e-09 1.90619e-08
1.96878e-06 -3.45714e-09 1.6703e-08
-9.24797e-09 6.15818e-06 -4.22384e-07
1.90028e-06 -4.21028e-09 1.92135e-08
1.22576e-10 7.19484e-06 -5.0563e-07
1.92612e-06 -3.32769e-09 1.73416e-08
1.95328e-06 -3.02932e-09 1.8122e-08
-9.95885e-10 7.20986e-06 -5.01894e-07
1.86814e-06 -4.11708e-09 1.93393e-08
1.89402e-06 -3.26758e-09 1.78429e-08
1.92081e-06 -3.00527e-09 1.73043e-08
1.8498e-06 -1.53389e-09 1.25913e-08
1.86644e-06 -1.05417e-09 1.49576e-08
-3.02962e-09 5.16037e-06 -3.60558e-07
3.12895e-13 4.131e-06 -2.91498e-07
-2.05146e-09 3.09947e-06 -2.19782e-07
-2.47789e-10 4.13893e-06 -2.92113e-07
-2.09515e-09 3.10543e-06 -2.20352e-07
1.78833e-06 -1.44293e-09 1.2159e-08
1.80443e-06 -1.02134e-09 1.43317e-08
1.75791e-06 -1.36825e-09 1.29054e-08
1.77389e-06 -1.04988e-09 1.39937e-08
-3.81223e-09 5.17011e-06 -3.60024e-07
1.87772e-06 -7.0035e-10 9.64741e-09
1.88512e-06 1.06704e-10 9.40061e-09
1.888e-06 5.52642e-10 -4.91666e-09
-7.19514e-10 2.0664e-06 -1.46152e-07
-2.18362e-10 1.03305e-06 -7.33619e-08
-7.74406e-10 2.0704e-06 -1.46266e-07
-5.32021e-14 1.01827e-10 -7.25155e-12
1.81528e-06 -7.03728e-10 8.53754e-09
1.8225e-06 6.06196e-11 8.96691e-09
1.8253e-06 4.50191e-10 -4.89079e-09
1.78453e-06 -7.17346e-10 8.04822e-09
1.79164e-06 1.41759e-11 8.55508e-09
1.79441e-06 3.39499e-10 -5.66846e-09
-1.92709e-10 1.03502e-06 -7.34684e-08
4.60156e-10 4.12307e-06 -2.90816e-07
-1.96597e-09 3.09348e-06 -2.19235e-07
-3.10481e-09 5.15033e-06 -3.60945e-07
1.89347e-06 -1.64007e-09 1.19895e-08
1.91049e-06 -1.10349e-09 1.43694e-08
-2.9012e-09 5.14025e-06 -3.60387e-07
8.62021e-10 4.11481e-06 -2.89997e-07
-1.93793e-09 3.08725e-06 -2.18855e-07
1.93873e-06 -1.73388e-09 1.16964e-08
1.95606e-06 -1.12638e-09 1.44138e-08
1.46652e-09 4.1062e-06 -2.88229e-07
-1.78037e-09 3.08076e-06 -2.17549e-07
-2.22107e-09 5.12926e-06 -3.59817e-07
1.97104e-06 -1.82722e-09 1.10812e-08
1.98845e-06 -1.18232e-09 1.41198e-08
-1.17743e-09 5.11842e-06 -3.6019e-07
2.21021e-09 4.09733e-06 -2.87652e-07
-1.40948e-09 3.07409e-06 -2.17113e-07
-1.48409e-09 5.10751e-06 -3.60497e-07
2.48492e-09 4.08873e-06 -2.87379e-07
-1.30483e-09 3.06763e-06 -2.16863e-07
2.0578e-06 -2.07123e-09 1.01077e-08
2.07587e-06 -1.30048e-09 1.40504e-08
2.01594e-06 -1.94822e-09 1.07293e-08
2.03358e-06 -1.22576e-09 1.40051e-08
-5.6713e-10 2.06238e-06 -1.45801e-07
-2.67089e-14 1.03619e-10 -7.38785e-12
-2.40033e-10 1.031e-06 -7.32578e-08
1.92214e-06 -7.00994e-10 1.0312e-08
1.92976e-06 1.25009e-10 9.70384e-09
1.93276e-06 6.02243e-10 -4.43946e-09
-5.2738e-10 2.05821e-06 -1.45528e-07
-2.87796e-10 1.02895e-06 -7.30298e-08
-8.42391e-14 1.05056e-10 -7.48797e-12
1.96802e-06 -6.56116e-10 1.13843e-08
1.97584e-06 1.62013e-10 9.78122e-09
1.97892e-06 6.9405e-10 -4.32246e-09
-3.8167e-10 2.05385e-06 -1.44845e-07
-2.84435e-10 1.02671e-06 -7.27746e-08
2.00848e-06 1.50401e-10 9.6445e-09
2.00062e-06 -6.57986e-10 1.21261e-08
2.01173e-06 7.15972e-10 -4.35946e-09
-2.64559e-10 2.04937e-06 -1.44455e-07
-2.86703e-10 1.02449e-06 -7.24999e-08
-2.88151e-10 2.04504e-06 -1.44267e-07
-3.72108e-10 1.02232e-06 -7.23614e-08
2.08864e-06 -6.84626e-10 1.33708e-08
2.09682e-06 1.29018e-10 9.64056e-09
2.10003e-06 8.1716e-10 -4.0738e-09
2.04593e-06 -6.46087e-10 1.27501e-08
2.0539e-06 1.76524e-10 9.71318e-09
2.05699e-06 8.06706e-10 -4.32673e-09
1.95023e-14 9.69631e-11 -6.88023e-12
1.888e-06 -5.51922e-10 4.92259e-09
1.88511e-06 -1.05304e-10 -9.37634e-09
1.87771e-06 7.03386e-10 -9.51567e-09
1.07836e-14 1.02529e-10 -7.32735e-12
-2.13337e-10 -1.03284e-06 7.35329e-08
-7.14331e-10 -2.06619e-06 1.46609e-07
-7.6242e-10 -2.07019e-06 1.46737e-07
1.82531e-06 -4.46964e-10 4.94442e-09
1.82249e-06 -5.67558e-11 -8.90927e-09
1.81527e-06 7.09613e-10 -8.33848e-09
1.79441e-06 -3.38447e-10 5.72704e-09
1.79162e-06 -1.27034e-11 -8.49995e-09
1.78451e-06 7.21784e-10 -7.87759e-09
-1.85936e-10 -1.03481e-06 7.36738e-08
1.86642e-06 1.05633e-09 -1.48541e-08
1.84979e-06 1.53429e-09 -1.25384e-08
-2.063e-09 -3.09925e-06 2.20391e-07
-7.66118e-12 -4.13079e-06 2.92302e-07
-3.05071e-09 -5.16015e-06 3.60966e-07
-2.09823e-09 -3.10521e-06 2.20973e-07
-2.36483e-10 -4.13871e-06 2.92823e-07
1.80441e-06 1.02672e-09 -1.41861e-08
1.78832e-06 1.4419e-09 -1.21447e-08
1.77385e-06 1.05421e-09 -1.3879e-08
1.75788e-06 1.36306e-09 -1.29064e-08
-3.80972e-09 -5.16987e-06 3.60458e-07
-3.5483e-14 7.40553e-11 -5.26346e-12
3.3516e-14 9.9864e-11 -7.09115e-12
-5.56587e-10 -2.06218e-06 1.46162e-07
-2.32666e-10 -1.03079e-06 7.33548e-08
1.93276e-06 -6.11814e-10 4.34904e-09
1.92975e-06 -1.33674e-10 -9.73987e-09
1.92212e-06 6.96556e-10 -1.03707e-08
-2.77264e-10 -1.02873e-06 7.30303e-08
-5.11438e-10 -2.058e-06 1.45751e-07
1.97892e-06 -7.02052e-10 4.13101e-09
1.97588e-06 -1.69086e-10 -9.91395e-09
1.96807e-06 6.52676e-10 -1.15021e-08
-3.69091e-10 -2.05365e-06 1.45031e-07
-2.76251e-10 -1.02651e-06 7.27627e-08
2.00864e-06 -1.56362e-10 -9.87301e-09
2.01178e-06 -7.2233e-10 4.06991e-09
2.00087e-06 6.548e-10 -1.23018e-08
-2.81942e-10 -1.02434e-06 7.24631e-08
-2.5534e-10 -2.04922e-06 1.44543e-07
-3.67105e-10 -1.02213e-06 7.23053e-08
-2.76585e-10 -2.04485e-06 1.4429e-07
2.10003e-06 -8.21644e-10 3.94263e-09
2.09682e-06 -1.34244e-10 -9.73651e-09
2.08865e-06 6.74421e-10 -1.36737e-08
2.05694e-06 -8.12122e-10 4.0482e-09
2.05377e-06 -1.81948e-10 -9.93627e-09
2.0457e-06 6.39872e-10 -1.29762e-08
-1.96787e-09 -3.09326e-06 2.19691e-07
4.61325e-10 -4.12286e-06 2.91523e-07
-3.15745e-09 -5.15014e-06 3.61306e-07
1.91047e-06 1.09749e-09 -1.43914e-08
1.89346e-06 1.6403e-09 -1.2056e-08
-1.93037e-09 -3.08702e-06 2.19127e-07
8.77282e-10 -4.11458e-06 2.90585e-07
-2.99576e-09 -5.14008e-06 3.6072e-07
1.95614e-06 1.12174e-09 -1.44827e-08
1.93883e-06 1.7315e-09 -1.17501e-08
-1.77321e-09 -3.08055e-06 2.17737e-07
1.48205e-09 -4.10599e-06 2.88694e-07
-2.29969e-09 -5.1291e-06 3.60089e-07
1.98882e-06 1.17784e-09 -1.42358e-08
1.97152e-06 1.82148e-09 -1.11237e-08
-1.40428e-09 -3.07395e-06 2.17118e-07
2.22259e-09 -4.09719e-06 2.87869e-07
-1.22892e-09 -5.11831e-06 3.60394e-07
-1.29422e-09 -3.06744e-06 2.16752e-07
2.50363e-09 -4.08855e-06 2.87456e-07
2.07589e-06 1.29174e-09 -1.42079e-08
2.05781e-06 2.06078e-09 -1.01843e-08
2.03326e-06 1.2189e-09 -1.41423e-08
2.01552e-06 1.93938e-09 -1.08064e-08
-1.51605e-09 -5.10735e-06 3.60634e-07
-1.1313e-08 -6.19423e-06 4.29773e-07
-1.14645e-08 -6.20599e-06 4.27784e-07
1.77304e-06 2.69027e-09 -1.59938e-08
1.74909e-06 2.93682e-09 -1.97233e-08
-5.26401e-09 -7.25188e-06 5.02591e-07
1.74313e-06 2.5732e-09 -1.65219e-08
1.71979e-06 2.82975e-09 -2.10975e-08
-5.98584e-09 -7.26556e-06 5.00124e-07
1.72394e-06 3.81862e-09 -1.85447e-08
-9.67413e-09 -8.36956e-06 5.8478e-07
-1.09603e-08 -9.60431e-06 6.64294e-07
1.70123e-06 4.18393e-09 -2.62231e-08
1.669e-06 4.4949e-09 -2.23438e-08
-9.08606e-09 -1.1016e-05 7.38503e-07
-1.03323e-08 -8.38489e-06 5.84205e-07
-1.26492e-08 -9.62143e-06 6.63284e-07
-1.11511e-08 -1.10359e-05 7.34267e-07
1.83376e-06 2.72727e-09 -1.7404e-08
-1.08938e-08 -6.18242e-06 4.2875e-07
-3.95593e-09 -7.23841e-06 5.02207e-07
1.8081e-06 3.06558e-09 -1.97292e-08
1.78307e-06 3.88337e-09 -2.01256e-08
1.87685e-06 2.86114e-09 -1.72283e-08
1.85091e-06 3.12291e-09 -1.89161e-08
1.82467e-06 4.02562e-09 -1.96754e-08
-1.00502e-08 -6.17061e-06 4.25693e-07
-2.83197e-09 -7.22432e-06 5.0259e-07
-9.64104e-09 -6.13244e-06 4.23254e-07
2.03831e-06 3.22719e-09 -1.9141e-08
2.01012e-06 3.58818e-09 -1.62688e-08
1.98375e-06 4.55766e-09 -1.90465e-08
1.99659e-06 3.08014e-09 -1.89479e-08
-1.6019e-11 -7.18004e-06 5.07337e-07
-9.11758e-09 -6.14508e-06 4.23734e-07
1.96818e-06 3.45667e-09 -1.67315e-08
1.94206e-06 4.39951e-09 -1.90854e-08
-9.31776e-09 -6.15801e-06 4.22632e-07
1.95386e-06 3.02811e-09 -1.81568e-08
1.9268e-06 3.33005e-09 -1.73779e-08
1.02855e-10 -7.1947e-06 5.05769e-07
1.90106e-06 4.21778e-09 -1.92487e-08
-1.04659e-09 -7.20968e-06 5.01997e-07
1.92092e-06 3.00718e-09 -1.73466e-08
1.89415e-06 3.27322e-09 -1.78728e-08
1.86828e-06 4.12719e-09 -1.9365e-08
-8.64885e-09 -8.35397e-06 5.82843e-07
1.75872e-06 4.36826e-09 -2.70333e-08
1.72524e-06 4.70346e-09 -2.20115e-08
1.80071e-06 4.55437e-09 -2.63802e-08
-9.44772e-09 -9.586e-06 6.61748e-07
1.76495e-06 4.88233e-09 -1.99253e-08
-5.53003e-09 -1.09963e-05 7.27463e-07
-6.72174e-09 -8.33851e-06 5.78406e-07
-8.06544e-09 -9.56792e-06 6.56864e-07
-3.26522e-09 -1.09756e-05 7.20543e-07
1.9574e-06 5.34053e-09 -2.31686e-08
1.92036e-06 5.92537e-09 -1.43914e-08
1.91726e-06 5.14529e-09 -2.39642e-08
-3.42702e-09 -8.28784e-06 5.77056e-07
-4.63038e-09 -9.50973e-06 6.50133e-07
-3.51311e-09 -8.30488e-06 5.75428e-07
-4.39635e-09 -9.52945e-06 6.48302e-07
1.87905e-06 5.54901e-09 -1.53047e-08
-1.18005e-09 -1.09114e-05 7.18387e-07
1.87577e-06 4.92887e-09 -2.49037e-08
1.50595e-09 -1.09326e-05 7.12861e-07
-5.5029e-09 -8.3215e-06 5.74321e-07
-6.7927e-09 -9.54856e-06 6.5261e-07
1.83854e-06 5.30273e-09 -1.71599e-08
-1.20373e-09 -1.09544e-05 7.14151e-07
1.84309e-06 4.77263e-09 -2.55698e-08
1.80734e-06 5.08052e-09 -1.82979e-08
-3.07015e-08 -1.26576e-05 8.44402e-07
-5.89531e-08 -1.45087e-05 9.85612e-07
-6.87442e-08 -1.64449e-05 1.10444e-06
1.63791e-06 5.75466e-09 -2.51649e-08
1.60002e-06 6.78884e-09 -3.145e-08
1.56121e-06 7.78199e-09 -3.88938e-08
-1.75235e-07 -1.93631e-05 1.34748e-06
1.44725e-06 9.7057e-09 -9.21881e-08
1.48438e-06 9.23632e-09 -7.978e-08
-1.8254e-07 -1.93938e-05 1.34855e-06
-1.20063e-07 -1.8192e-05 1.23262e-06
-1.19772e-07 -1.82203e-05 1.22667e-06
1.4564e-06 8.91443e-09 -7.79449e-08
1.51988e-06 8.48009e-09 -5.43723e-08
1.41921e-06 9.40167e-09 -9.07507e-08
1.69256e-06 5.94456e-09 -2.65238e-08
1.61377e-06 8.04266e-09 -4.14229e-08
1.65391e-06 7.16049e-09 -3.25779e-08
1.73142e-06 6.16511e-09 -2.61544e-08
-2.70758e-08 -1.26354e-05 8.31545e-07
-5.49275e-08 -1.44829e-05 9.78665e-07
-6.37562e-08 -1.6417e-05 1.09868e-06
1.79585e-06 9.38931e-09 -4.18903e-08
-5.39854e-08 -1.43789e-05 9.75423e-07
1.87854e-06 7.20507e-09 -2.76229e-08
1.83763e-06 8.57626e-09 -3.35595e-08
1.84049e-06 6.83776e-09 -2.75459e-08
1.7585e-06 9.07993e-09 -4.18985e-08
-3.0793e-08 -1.25406e-05 8.34635e-07
-2.7045e-08 -1.25651e-05 8.31603e-07
-5.22702e-08 -1.44051e-05 9.7745e-07
1.80001e-06 8.25225e-09 -3.3157e-08
1.80265e-06 6.65136e-09 -2.7212e-08
1.76246e-06 7.95903e-09 -3.28178e-08
1.72076e-06 8.85988e-09 -4.20798e-08
1.77173e-06 6.35231e-09 -2.71568e-08
1.69095e-06 8.57395e-09 -4.18699e-08
-2.7976e-08 -1.25887e-05 8.34062e-07
-5.43517e-08 -1.44311e-05 9.81876e-07
-2.58345e-08 -1.26128e-05 8.3138e-07
-5.28817e-08 -1.44578e-05 9.78633e-07
1.73188e-06 7.68409e-09 -3.25248e-08
1.69216e-06 7.35745e-09 -3.22206e-08
1.65141e-06 8.34217e-09 -4.07052e-08
-6.09477e-08 -1.639e-05 1.10125e-06
-6.90289e-08 -1.63014e-05 1.08642e-06
-6.79161e-08 -1.6332e-05 1.09179e-06
-6.35924e-08 -1.63609e-05 1.10206e-06
1.53577e-06 9.66825e-09 -8.29596e-08
1.57101e-06 8.81298e-09 -5.68539e-08
1.49672e-06 1.01724e-08 -9.50182e-08
-1.52809e-07 -1.93301e-05 1.32341e-06
-1.14069e-07 -1.8162e-05 1.23207e-06
1.75127e-06 1.0472e-08 -5.84007e-08
1.714e-06 1.17704e-08 -8.33998e-08
-1.14588e-07 -1.80359e-05 1.24865e-06
1.67856e-06 1.12485e-08 -8.5282e-08
1.71392e-06 1.00994e-08 -5.80429e-08
-1.13498e-07 -1.80692e-05 1.24472e-06
-1.52478e-07 -1.92299e-05 1.30151e-06
1.6407e-06 1.08052e-08 -8.58897e-08
-1.37972e-07 -1.92625e-05 1.30807e-06
-1.73288e-07 -1.91954e-05 1.32666e-06
-1.10191e-07 -1.81001e-05 1.24737e-06
1.6762e-06 9.7755e-09 -5.78288e-08
1.6108e-06 1.03916e-08 -8.45297e-08
-1.11013e-07 -1.81319e-05 1.24003e-06
1.64644e-06 9.42944e-09 -5.71159e-08
-1.47412e-07 -1.92969e-05 1.32195e-06
1.57139e-06 1.00307e-08 -8.32317e-08
1.6073e-06 9.14578e-09 -5.5989e-08
1.66059e-06 1.23392e-08 -8.11579e-08
1.62872e-06 1.18992e-08 -8.79899e-08
1.59546e-06 1.14174e-08 -9.24487e-08
1.56732e-06 1.10219e-08 -9.35829e-08
1.53143e-06 1.05941e-08 -9.64492e-08
-2.73616e-07 -1.93838e-05 1.34893e-06
1.58198e-06 1.15592e-08 -1.90132e-08
-2.42598e-07 -1.94179e-05 1.30043e-06
1.55191e-06 1.11214e-08 -2.96851e-08
-3.02901e-07 -1.84038e-05 1.28433e-06
-2.16325e-07 -1.94503e-05 1.29582e-06
1.52028e-06 1.06614e-08 -3.72995e-08
-2.08225e-07 -1.94855e-05 1.29555e-06
1.49422e-06 1.02778e-08 -4.11003e-08
-2.873e-07 -1.84386e-05 1.23873e-06
1.50621e-06 1.08375e-08 4.3553e-08
-1.98089e-07 -1.95183e-05 1.29595e-06
1.46108e-06 9.87922e-09 -4.84e-08
-2.62994e-07 -1.84707e-05 1.23021e-06
-2.63648e-07 -1.8505e-05 1.27228e-06
1.47807e-06 1.04287e-08 3.02321e-08
-1.99785e-07 -1.95505e-05 1.31398e-06
1.42914e-06 9.57557e-09 -5.34958e-08
1.4499e-06 1.00464e-08 2.02402e-08
1.38281e-06 9.15744e-09 -5.351e-08
-2.63234e-07 -1.85352e-05 1.28728e-06
1.42507e-06 9.66471e-09 1.47012e-08
-2.75766e-07 -1.65565e-05 1.1182e-06
-2.05555e-07 -1.95814e-05 1.33005e-06
-2.58612e-07 -1.8567e-05 1.25224e-06
1.39361e-06 9.26812e-09 7.61752e-09
-2.70805e-07 -1.65899e-05 1.09995e-06
-2.12644e-07 1.95169e-05 -1.05088e-06
-1.96181e-07 1.96016e-05 -1.08695e-06
-2.11872e-07 1.96884e-05 -1.10673e-06
1.56556e-06 -1.12351e-08 -1.63491e-07
1.52784e-06 -1.07226e-08 -1.60168e-07
1.5046e-06 -1.03548e-08 -1.5348e-07
1.46594e-06 -9.96761e-09 -1.52253e-07
-2.88861e-07 1.93474e-05 -1.3505e-06
-3.09227e-07 1.83679e-05 -1.27322e-06
-2.77611e-07 1.65225e-05 -1.09721e-06
-2.33366e-07 1.64147e-05 -1.01637e-06
-2.22254e-07 1.6378e-05 -1.0039e-06
1.61618e-06 -1.19734e-08 1.41228e-08
1.53652e-06 -1.11592e-08 -5.58706e-08
-2.64026e-07 1.64871e-05 -1.09833e-06
-2.67894e-07 1.64538e-05 -1.06348e-06
-2.7153e-07 1.93098e-05 -1.35173e-06
-2.92232e-07 1.83298e-05 -1.27261e-06
1.64734e-06 -1.23083e-08 1.31131e-08
1.56836e-06 -1.14965e-08 -5.43267e-08
-2.62953e-07 1.92739e-05 -1.35608e-06
-2.81434e-07 1.82927e-05 -1.24811e-06
1.68563e-06 -1.27948e-08 1.10594e-08
1.60714e-06 -1.18619e-08 -5.44349e-08
-2.32466e-07 1.92328e-05 -1.31307e-06
-2.54181e-07 1.82523e-05 -1.20788e-06
1.63072e-06 -1.22279e-08 -5.91797e-08
1.66838e-06 -1.27051e-08 -6.07061e-08
1.70932e-06 -1.32253e-08 5.5822e-09
-2.10041e-07 1.91913e-05 -1.30256e-06