# vtk DataFile Version 3.0
vtk output
ASCII
DATASET POLYDATA
POINTS 19897 float
0.128312 0.995433 -0.0522986
0.128485 0.985429 -0.0518881
0.117974 1.00053 -0.0503344
0.182609 0.939919 -0.0532725
0.182775 0.929925 -0.0526345
0.171914 0.935022 -0.0529235
0.161068 0.940113 -0.0528981
0.172065 0.92503 -0.0523603
0.161281 0.930119 -0.0523123
0.182939 0.919941 -0.0519907
0.172254 0.915042 -0.0517198
0.161457 0.920135 -0.0517063
0.150629 0.935222 -0.0516309
0.17239 0.905046 -0.0511289
0.161635 0.910139 -0.0510907
0.183078 0.909951 -0.0513966
0.15081 0.925232 -0.0510816
0.183246 0.899959 -0.0507399
0.139935 0.940326 -0.0507568
0.172576 0.895059 -0.0504786
0.161836 0.900151 -0.0504375
0.151031 0.91524 -0.0505265
0.183409 0.889968 -0.0501099
0.151204 0.905244 -0.0499363
0.140194 0.930334 -0.0501582
0.193381 0.934826 -0.052952
0.193494 0.924834 -0.0523924
0.193639 0.914845 -0.0517746
0.203976 0.93972 -0.0532238
0.225211 0.93953 -0.0530713
0.246023 0.939366 -0.0530466
0.204117 0.929728 -0.0525974
0.214712 0.934629 -0.0528313
0.235706 0.934457 -0.0527207
0.214824 0.92464 -0.0522329
0.235785 0.924468 -0.0520882
0.225318 0.929543 -0.05245
0.246111 0.929378 -0.0524019
0.214934 0.914649 -0.0516365
0.225404 0.919556 -0.0518475
0.246181 0.919391 -0.0517794
0.204251 0.919746 -0.0519574
0.204363 0.909752 -0.0513935
0.225483 0.909564 -0.0512572
0.23587 0.914481 -0.0514454
0.204481 0.899761 -0.0507812
0.193775 0.904854 -0.0511727
0.21503 0.904659 -0.0510574
0.235949 0.904487 -0.0508223
0.246252 0.909403 -0.0511509
0.193931 0.894865 -0.050485
0.215119 0.894668 -0.0504797
0.225578 0.899579 -0.0506222
0.246337 0.899416 -0.0505075
0.204599 0.88977 -0.0501882
0.225659 0.889585 -0.0500141
0.236022 0.894502 -0.0502083
0.128799 0.975433 -0.0511943
0.129034 0.965434 -0.0506347
0.171696 0.945011 -0.0535802
0.15043 0.945212 -0.0521428
0.182424 0.949909 -0.0538923
0.160842 0.950103 -0.0535126
0.139708 0.950324 -0.0513718
0.171514 0.955004 -0.0541778
0.150214 0.955208 -0.0527402
0.182252 0.959899 -0.0545316
0.160657 0.960095 -0.0540819
0.139517 0.96032 -0.0519367
0.171326 0.96499 -0.0547908
0.149959 0.9652 -0.053421
0.138584 1.00031 -0.054369
0.139313 0.970317 -0.0525293
0.182055 0.96989 -0.05518
0.160443 0.970086 -0.0546893
0.138813 0.990312 -0.0537967
0.139033 0.98032 -0.0532285
0.171132 0.974984 -0.0554198
0.149721 0.975201 -0.0540807
0.181879 0.979883 -0.0558396
0.160247 0.98008 -0.0553121
0.170922 0.984971 -0.0560905
0.149403 0.985192 -0.0548874
0.181685 0.989868 -0.0565244
0.159997 0.990067 -0.0559923
0.149182 0.995191 -0.0554731
0.181516 0.999862 -0.0571458
0.159774 1.00006 -0.0565868
0.17074 0.994965 -0.056701
0.129237 0.955437 -0.0500878
0.193212 0.944816 -0.053596
0.214578 0.944618 -0.0534369
0.235609 0.944444 -0.0533486
0.203822 0.949708 -0.0538745
0.225112 0.949525 -0.0536259
0.245934 0.949359 -0.0536664
0.193065 0.95481 -0.0542144
0.192918 0.964796 -0.0548474
0.19277 0.974789 -0.0554949
0.192585 0.984775 -0.0561779
0.192414 0.994769 -0.0568205
0.21446 0.954608 -0.0540088
0.235516 0.954431 -0.0539654
0.203689 0.959698 -0.0545045
0.224997 0.959508 -0.0542447
0.245852 0.959341 -0.0543157
0.21434 0.964597 -0.0546104
0.235427 0.964419 -0.0545699
0.203551 0.969689 -0.0551456
0.245771 0.969333 -0.0549529
0.224897 0.969503 -0.0548424
0.214222 0.974589 -0.0552461
0.235335 0.974409 -0.0551913
0.203402 0.979676 -0.0558223
0.235218 0.984393 -0.0558366
0.224769 0.979489 -0.0554975
0.245684 0.979322 -0.0555849
0.203263 0.989665 -0.0564664
0.24559 0.989304 -0.056233
0.214057 0.984572 -0.0559605
0.224651 0.989478 -0.056129
0.203109 0.999653 -0.0571158
0.213903 0.994563 -0.0566437
0.235105 0.994385 -0.0564543
0.224514 0.999464 -0.0567922
0.245485 0.999295 -0.0568841
0.213778 1.00455 -0.0572617
0.235005 1.00437 -0.057061
0.348545 0.878899 -0.0499722
0.36877 0.878835 -0.0500671
0.389087 0.878787 -0.0500607
0.409213 0.878745 -0.0501568
0.429406 0.878717 -0.0501185
0.449586 0.878692 -0.0501528
0.469718 0.87868 -0.0501083
0.489833 0.878677 -0.0500466
0.256367 0.934288 -0.052707
0.256438 0.9243 -0.0520769
0.287183 0.939089 -0.053391
0.307643 0.938994 -0.0534267
0.297445 0.934051 -0.0531272
0.266625 0.939205 -0.0530684
0.287283 0.929108 -0.0527486
0.307717 0.929011 -0.0527831
0.277016 0.934161 -0.0529308
0.287333 0.919123 -0.0521321
0.307758 0.919026 -0.0521688
0.27709 0.924176 -0.0522953
0.297524 0.924071 -0.0524945
0.266747 0.929225 -0.0524481
0.266815 0.919241 -0.0518529
0.277152 0.91419 -0.0516548
0.297568 0.914085 -0.0518885
0.256496 0.914314 -0.051452
0.29763 0.904093 -0.0512847
0.266894 0.909254 -0.0512304
0.287407 0.909142 -0.0515114
0.307816 0.909044 -0.0515472
0.256598 0.904326 -0.0508305
0.287473 0.899158 -0.0508757
0.307877 0.899061 -0.0508813
0.277242 0.904208 -0.0510318
0.27731 0.894224 -0.0503791
0.297704 0.894117 -0.0506054
0.266995 0.899277 -0.0505893
0.297762 0.884128 -0.0499556
0.267071 0.889287 -0.0499611
0.287544 0.889173 -0.0502514
0.307935 0.889075 -0.0502501
0.256711 0.894348 -0.0501837
0.317858 0.933951 -0.0531854
0.317918 0.92397 -0.052546
0.317959 0.913981 -0.0519253
0.368624 0.938727 -0.053952
0.358489 0.933768 -0.0535503
0.327982 0.938884 -0.0537004
0.348338 0.9388 -0.0537981
0.328032 0.928895 -0.0530682
0.348377 0.928812 -0.0531606
0.368647 0.928746 -0.0532895
0.338187 0.93385 -0.0534664
0.368662 0.918763 -0.052652
0.338226 0.923865 -0.0528373
0.358517 0.92379 -0.0528979
0.33826 0.913878 -0.0522221
0.358544 0.913803 -0.052275
0.328083 0.918918 -0.0524352
0.348407 0.918835 -0.0525236
0.328118 0.908933 -0.0518057
0.348433 0.908849 -0.0518967
0.368687 0.908784 -0.0520035
0.368715 0.898797 -0.051365
0.318 0.903991 -0.0513064
0.338298 0.903898 -0.0515859
0.358573 0.903823 -0.051639
0.338339 0.893914 -0.0509575
0.358603 0.893841 -0.0510058
0.328187 0.898951 -0.0511613
0.348479 0.898867 -0.0512495
0.328234 0.888967 -0.0505282
0.348507 0.888883 -0.0506258
0.368739 0.888819 -0.0507249
0.31807 0.894014 -0.0506432
0.318119 0.884025 -0.0500135
0.338384 0.883932 -0.0503131
0.358635 0.883859 -0.0503622
0.256293 0.944276 -0.0533482
0.276899 0.944142 -0.0535597
0.297374 0.94404 -0.0537529
0.287099 0.949079 -0.0540417
0.307575 0.948985 -0.0540672
0.266519 0.949195 -0.0536842
0.256018 0.984226 -0.0558945
0.255945 0.994217 -0.0565057
0.255867 1.0042 -0.0571477
0.256214 0.954263 -0.0539911
0.297287 0.954017 -0.0543956
0.276813 0.954126 -0.0541893
0.256148 0.964251 -0.0546148
0.256078 0.974241 -0.0552566
0.287006 0.959056 -0.05468
0.307502 0.958961 -0.0547213
0.266388 0.959169 -0.0543151
0.276698 0.964108 -0.0547667
0.297226 0.964008 -0.0550035
0.286935 0.969043 -0.0553249
0.30744 0.968949 -0.055359
0.266296 0.969156 -0.0549349
0.266251 0.979141 -0.0555684
0.286831 0.979021 -0.055957
0.307359 0.978929 -0.0559919
0.297141 0.973989 -0.055632
0.276615 0.974095 -0.0553911
0.276498 0.984071 -0.0560035
0.297075 0.983974 -0.0562657
0.266194 0.989131 -0.0561782
0.286754 0.98901 -0.056572
0.307298 0.988919 -0.0565915
0.296983 0.993956 -0.056894
0.276415 0.994059 -0.0566075
0.266135 0.999117 -0.0568169
0.286648 0.998989 -0.0572008
0.307215 0.998899 -0.0572358
0.276294 1.00404 -0.057236
0.296909 1.00395 -0.0575397
0.317805 0.943941 -0.0538176
0.338132 0.943831 -0.0541131
0.358457 0.943756 -0.054183
0.348291 0.948782 -0.0544387
0.368592 0.948715 -0.0545866
0.327929 0.948874 -0.0543199
0.317736 0.953919 -0.0544825
0.358421 0.953733 -0.0548583
0.338082 0.953815 -0.0547748
0.32787 0.95885 -0.0549942
0.348254 0.958765 -0.0550957
0.368562 0.958697 -0.055253
0.317685 0.963911 -0.055107
0.317627 0.973892 -0.0557506
0.317573 0.983878 -0.0563969
0.317506 0.99386 -0.0570216
0.317447 1.00385 -0.0576659
0.368539 0.968677 -0.055918
0.358395 0.963718 -0.0554997
0.338033 0.963797 -0.0554141
0.348211 0.968745 -0.0557573
0.337994 0.973783 -0.0560646
0.358361 0.973707 -0.056142
0.327822 0.968839 -0.0556523
0.32776 0.978819 -0.0563255
0.348173 0.97873 -0.0564079
0.368506 0.978662 -0.0565712
0.337933 0.983761 -0.0567336
0.358323 0.983685 -0.0568179
0.327716 0.98881 -0.0569445
0.348125 0.988711 -0.0570603
0.368474 0.988643 -0.0572258
0.337887 0.993749 -0.0573634
0.358291 0.993672 -0.0574531
0.327658 0.998792 -0.0576003
0.348083 0.998698 -0.0577058
0.368441 0.99863 -0.0578712
0.337827 1.00373 -0.0580216
0.358252 1.00365 -0.0581059
0.378861 0.883801 -0.0503953
0.399132 0.883756 -0.0504108
0.419309 0.883719 -0.0505114
0.378704 0.93371 -0.0535733
0.378708 0.923732 -0.0529163
0.378722 0.913746 -0.0522882
0.409081 0.938631 -0.0539986
0.429331 0.938602 -0.0539879
0.398992 0.933664 -0.0535984
0.419223 0.933625 -0.0537167
0.38887 0.93868 -0.053877
0.419236 0.923642 -0.053068
0.388899 0.928694 -0.0532218
0.409104 0.928651 -0.0533422
0.42934 0.928622 -0.0533301
0.388921 0.918713 -0.0525965
0.409113 0.91867 -0.0527124
0.429342 0.918641 -0.0527031
0.399024 0.923687 -0.0529489
0.399041 0.913701 -0.0523155
0.41925 0.913663 -0.0524344
0.41926 0.903678 -0.0518102
0.388967 0.908734 -0.0519608
0.409135 0.908692 -0.0520738
0.429351 0.908663 -0.0520616
0.389 0.898748 -0.0513132
0.409156 0.898706 -0.0514249
0.429365 0.898677 -0.0514081
0.37876 0.903765 -0.0516663
0.399074 0.903722 -0.0516919
0.378804 0.893785 -0.0510325
0.399097 0.893741 -0.0510486
0.419282 0.893703 -0.0511563
0.38905 0.888771 -0.0506991
0.409184 0.888729 -0.0508014
0.429381 0.8887 -0.0507728
0.459645 0.883672 -0.050537
0.439422 0.933602 -0.0536234
0.439417 0.923625 -0.0529709
0.439421 0.91364 -0.0523301
0.449535 0.938576 -0.0540299
0.469729 0.938563 -0.0539866
0.459629 0.933577 -0.0537601
0.479807 0.933574 -0.0536064
0.489881 0.938567 -0.0539174
0.459632 0.923595 -0.0531157
0.449535 0.928596 -0.0533719
0.469714 0.928584 -0.0533293
0.489873 0.928581 -0.0532663
0.449539 0.918614 -0.0527495
0.469711 0.918603 -0.0527058
0.489867 0.9186 -0.0526443
0.479784 0.923597 -0.0529573
0.459626 0.913616 -0.0524764
0.479784 0.913612 -0.0523226
0.459628 0.903631 -0.051849
0.44954 0.908637 -0.0521
0.469699 0.908625 -0.0520579
0.489841 0.908622 -0.0519974
0.449552 0.898651 -0.0514522
0.469705 0.898639 -0.051407
0.48984 0.898637 -0.051348
[...]
POINT_DATA 19897
VECTORS alpha float
-3.78618e-07 1.69422e-05 -1.00319e-06
-3.5361e-07 1.69655e-05 -9.98332e-07
1.09367e-06 -8.66981e-09 -1.19968e-07
1.1271e-06 -9.04907e-09 6.57047e-08
1.10785e-06 -8.77748e-09 6.47164e-08
-2.70884e-07 1.99393e-05 -1.30505e-06
1.09059e-06 -9.15881e-09 4.94985e-08
-2.63714e-07 1.99621e-05 -1.30556e-06
1.0727e-06 -8.87902e-09 5.00071e-08
1.08021e-06 -8.44604e-09 6.20469e-08
-2.79986e-07 1.99845e-05 -1.3093e-06
1.04586e-06 -8.55846e-09 4.96304e-08
-3.2937e-07 1.89487e-05 -1.16534e-06
-2.75947e-07 2.00058e-05 -1.31455e-06
1.02278e-06 -8.25428e-09 4.82927e-08
1.05751e-06 -8.18179e-09 6.07748e-08
-3.40305e-07 1.89716e-05 -1.19026e-06
1.03848e-06 -7.92623e-09 5.89585e-08
1.0358e-06 -8.53363e-09 -9.12691e-09
-2.80886e-07 2.00266e-05 -1.31751e-06
1.00381e-06 -8.01759e-09 4.6831e-08
-3.40636e-07 1.89927e-05 -1.22134e-06
1.01986e-06 -7.66633e-09 5.80531e-08
-3.39838e-07 1.90136e-05 -1.22571e-06
1.01877e-06 -8.29876e-09 -8.56969e-09
-2.06962e-07 1.974e-05 -1.3238e-06
-2.06738e-07 1.97623e-05 -1.32751e-06
-2.15115e-07 1.97838e-05 -1.30667e-06
1.15636e-06 -8.79718e-09 6.06124e-08
1.17678e-06 -8.13863e-09 4.53267e-08
1.20205e-06 -7.40856e-09 3.70837e-08
1.13681e-06 -8.5297e-09 6.04045e-08
-1.58844e-07 1.85504e-05 -1.22672e-06
-1.08454e-07 1.67758e-05 -1.14238e-06
-1.58097e-07 1.85714e-05 -1.22487e-06
-1.07663e-07 1.67951e-05 -1.14005e-06
1.15639e-06 -7.9256e-09 4.52442e-08
1.18155e-06 -7.23598e-09 3.67352e-08
-1.59441e-07 1.8592e-05 -1.20994e-06
1.12926e-06 -7.60634e-09 4.54653e-08
1.15471e-06 -6.94645e-09 3.68962e-08
1.10882e-06 -8.23311e-09 5.8489e-08
1.08554e-06 -7.93299e-09 5.88796e-08
1.10607e-06 -7.34032e-09 4.57726e-08
-1.12965e-07 1.68143e-05 -1.13284e-06
1.06612e-06 -7.66902e-09 5.92077e-08
-2.19809e-07 1.98046e-05 -1.30061e-06
-1.59741e-07 1.86111e-05 -1.21253e-06
-1.0888e-07 1.68324e-05 -1.12384e-06
1.13093e-06 -6.7636e-09 3.63664e-08
-2.11633e-07 1.98251e-05 -1.3068e-06
-1.59448e-07 1.8631e-05 -1.22268e-06
1.08681e-06 -7.13979e-09 4.57912e-08
1.11191e-06 -6.56159e-09 3.59729e-08
1.04663e-06 -7.41207e-09 5.92284e-08
1.06741e-06 -6.89047e-09 4.59129e-08
-1.1572e-07 1.68511e-05 -1.11381e-06
-3.11174e-07 1.69873e-05 -9.56048e-07
-3.18715e-07 1.70096e-05 -1.02222e-06
-2.74038e-07 1.9917e-05 -1.31062e-06
-3.42563e-07 1.89279e-05 -1.16868e-06
1.1551e-06 -9.36838e-09 6.77689e-08
1.11756e-06 -9.48042e-09 5.03429e-08
1.06157e-06 -8.80701e-09 -9.95813e-09
-2.79386e-07 1.98943e-05 -1.3047e-06
-3.40336e-07 1.89054e-05 -1.17485e-06
1.17996e-06 -9.69794e-09 6.88129e-08
1.14141e-06 -9.81275e-09 4.96079e-08
1.08397e-06 -9.08984e-09 -1.2161e-08
-2.72292e-07 1.98706e-05 -1.30731e-06
-3.21772e-07 1.88815e-05 -1.19564e-06
1.18052e-06 -1.02658e-08 -1.95594e-08
1.10888e-06 -9.37082e-09 -1.42852e-08
1.20769e-06 -1.00355e-08 7.11461e-08
1.16848e-06 -1.0145e-08 5.0505e-08
1.1576e-06 -9.97622e-09 -1.69795e-08
1.13311e-06 -9.67203e-09 -1.35871e-08
-2.63512e-07 1.98456e-05 -1.28332e-06
-3.00482e-07 1.88566e-05 -1.14443e-06
1.23202e-06 -1.03277e-08 7.35743e-08
1.1924e-06 -1.04324e-08 5.15078e-08
-2.77898e-07 1.98205e-05 -1.29372e-06
-3.16898e-07 1.88315e-05 -1.17416e-06
1.26002e-06 -1.06657e-08 7.55138e-08
1.2199e-06 -1.07524e-08 5.31566e-08
-3.31811e-07 1.88073e-05 -1.17525e-06
1.28639e-06 -1.10631e-08 7.66446e-08
1.24473e-06 -1.1055e-08 5.2996e-08
-2.89915e-07 1.9797e-05 -1.27938e-06
-3.08922e-07 1.70313e-05 -9.86392e-07
-2.09753e-07 1.97182e-05 -1.32643e-06
-1.59939e-07 1.85295e-05 -1.2396e-06
-1.09648e-07 1.67564e-05 -1.13683e-06
1.18449e-06 -9.08089e-09 6.19383e-08
1.2051e-06 -8.45149e-09 4.47701e-08
1.23004e-06 -7.64878e-09 3.73205e-08
-2.14943e-07 1.96956e-05 -1.3188e-06
-2.06796e-07 1.96719e-05 -1.31904e-06
-2.04826e-07 1.96482e-05 -1.31268e-06
-2.19166e-07 1.96237e-05 -1.31915e-06
-2.42001e-07 1.9601e-05 -1.31212e-06
-1.57728e-07 1.85072e-05 -1.24266e-06
-1.12123e-07 1.67358e-05 -1.13624e-06
1.20968e-06 -9.39663e-09 6.30018e-08
1.2311e-06 -8.73224e-09 4.50139e-08
1.25614e-06 -7.87941e-09 3.76775e-08
-1.51085e-07 1.84856e-05 -1.23745e-06
-1.07931e-07 1.67154e-05 -1.12612e-06
1.23788e-06 -9.71457e-09 6.50831e-08
1.28428e-06 -8.14824e-09 3.86019e-08
1.25903e-06 -9.08076e-09 4.49354e-08
-1.47659e-07 1.84627e-05 -1.23456e-06
-1.08467e-07 1.66946e-05 -1.1128e-06
1.26292e-06 -9.94787e-09 6.79984e-08
-1.17286e-07 1.66732e-05 -1.10871e-06
1.28374e-06 -9.28215e-09 4.63462e-08
1.30967e-06 -8.34804e-09 3.94315e-08
1.29071e-06 -1.03077e-08 7.01665e-08
1.33949e-06 -8.60427e-09 4.14322e-08
-1.57316e-07 1.84393e-05 -1.23458e-06
1.31286e-06 -9.62062e-09 4.75534e-08
1.31654e-06 -1.05877e-08 7.24881e-08
-1.69681e-07 1.84176e-05 -1.21473e-06
-1.23678e-07 1.66527e-05 -1.09772e-06
1.33962e-06 -9.85477e-09 4.91427e-08
1.36564e-06 -8.85113e-09 4.25974e-08
-1.74904e-07 1.83951e-05 -1.21361e-06
-1.29106e-07 1.66315e-05 -1.09941e-06
1.1704e-06 -2.76287e-09 2.25409e-08
1.18595e-06 -2.29572e-09 2.01207e-08
1.19646e-06 -1.64488e-09 1.39176e-08
1.20702e-06 -1.30463e-09 1.30624e-08
1.21738e-06 -1.18718e-09 1.1131e-08
1.22361e-06 -4.86837e-10 1.11193e-08
1.22811e-06 -1.99281e-10 9.51679e-09
1.22946e-06 -1.31522e-10 -2.04753e-09
-7.00339e-08 1.48114e-05 -1.01128e-06
-6.9481e-08 1.48289e-05 -1.00807e-06
1.25174e-06 -5.49485e-09 2.50555e-08
1.27564e-06 -4.86458e-09 2.31095e-08
-2.14315e-08 1.12634e-05 -7.78688e-07
1.22887e-06 -6.45837e-09 2.72857e-08
1.22942e-06 -5.40008e-09 2.50702e-08
1.25271e-06 -4.77751e-09 2.27864e-08
-3.70162e-08 1.29319e-05 -8.93502e-07
1.20203e-06 -5.19911e-09 2.53532e-08
1.22497e-06 -4.59548e-09 2.31575e-08
-3.81997e-08 1.29477e-05 -8.9577e-07
-2.51938e-08 1.12776e-05 -7.85574e-07
1.20686e-06 -6.30884e-09 2.74841e-08
1.17953e-06 -6.06313e-09 2.82244e-08
-3.87358e-08 1.29638e-05 -8.93111e-07
-2.68111e-08 1.12917e-05 -7.81509e-07
-7.50521e-08 1.48464e-05 -9.99454e-07
-2.89555e-08 1.13046e-05 -7.86241e-07
1.15508e-06 -5.88952e-09 2.81884e-08
1.17698e-06 -5.08161e-09 2.51055e-08
1.19972e-06 -4.50086e-09 2.27614e-08
-7.29014e-08 1.48634e-05 -9.95833e-07
1.15665e-06 -4.95363e-09 2.4447e-08
1.17892e-06 -4.41166e-09 2.14697e-08
-4.13207e-08 1.29788e-05 -8.93279e-07
-4.14399e-08 1.29935e-05 -8.85711e-07
-3.07378e-08 1.13181e-05 -7.83995e-07
1.13427e-06 -5.74064e-09 2.75506e-08
-3.1158e-08 1.13311e-05 -7.81712e-07
1.11433e-06 -5.55917e-09 2.74095e-08
1.13619e-06 -4.83414e-09 2.39004e-08
1.15814e-06 -4.3272e-09 2.05889e-08
-7.51198e-08 1.488e-05 -9.91172e-07
-1.3879e-08 9.82297e-06 -6.91635e-07
-1.55582e-08 9.8357e-06 -6.95639e-07
-1.35205e-08 9.84804e-06 -6.90136e-07
1.33504e-06 -2.74392e-09 2.28754e-08
-8.90683e-09 7.42219e-06 -5.17102e-07
1.29884e-06 -4.23279e-09 2.22865e-08
1.31638e-06 -3.33822e-09 2.34066e-08
1.27572e-06 -4.07788e-09 2.24123e-08
1.29286e-06 -3.23187e-09 2.35375e-08
1.31046e-06 -2.68861e-09 2.23613e-08
-1.00392e-08 8.56451e-06 -5.99882e-07
1.28086e-06 -2.5652e-09 2.21651e-08
-1.05906e-08 8.57557e-06 -6.023e-07
-1.08804e-08 7.43178e-06 -5.20811e-07
-9.18158e-09 8.58642e-06 -5.99226e-07
-1.06367e-08 7.44118e-06 -5.20184e-07
1.24662e-06 -3.90914e-09 2.29921e-08
1.26366e-06 -3.13226e-09 2.37135e-08
1.22085e-06 -3.7589e-09 2.28662e-08
1.23788e-06 -3.02934e-09 2.36949e-08
1.25449e-06 -2.5175e-09 2.16492e-08
1.23232e-06 -2.42577e-09 2.10728e-08
-1.5792e-08 9.86009e-06 -6.91192e-07
-1.36372e-08 8.59672e-06 -6.01488e-07
-1.38465e-08 7.45026e-06 -5.22251e-07
-1.34013e-08 8.60724e-06 -6.02263e-07
-1.34466e-08 7.45948e-06 -5.23151e-07
1.19902e-06 -3.6642e-09 2.24281e-08
1.21584e-06 -2.96435e-09 2.30453e-08
1.17759e-06 -3.53163e-09 2.21353e-08
1.19416e-06 -2.85068e-09 2.3019e-08
1.2099e-06 -2.37127e-09 2.06357e-08
-1.84009e-08 9.87195e-06 -6.92156e-07
-1.96495e-08 9.88325e-06 -6.89184e-07
-1.62894e-08 8.61725e-06 -6.01697e-07
-1.53071e-08 7.46827e-06 -5.22859e-07
-7.14858e-08 1.47937e-05 -1.01035e-06
-3.59207e-08 1.2916e-05 -8.87854e-07
-2.25031e-08 1.12492e-05 -7.80542e-07
1.28049e-06 -5.62517e-09 2.52021e-08
1.30478e-06 -5.00414e-09 2.34759e-08
1.25757e-06 -6.67165e-09 2.71698e-08
-7.61451e-08 1.47174e-05 -9.97875e-07
-7.69375e-08 1.46984e-05 -9.83706e-07
-8.28044e-08 1.46797e-05 -9.78257e-07
-7.38228e-08 1.4775e-05 -1.0067e-06
-1.9637e-08 1.12343e-05 -7.75473e-07
-3.36936e-08 1.2899e-05 -8.81642e-07
-7.1451e-08 1.47567e-05 -1.00437e-06
-7.29316e-08 1.47372e-05 -1.00187e-06
1.30793e-06 -5.78497e-09 2.47341e-08
1.3327e-06 -5.15006e-09 2.35228e-08
1.28488e-06 -6.91426e-09 2.66036e-08
-3.0061e-08 1.28824e-05 -8.75205e-07
-1.84938e-08 1.12198e-05 -7.73935e-07
1.33676e-06 -5.94935e-09 2.50282e-08
1.36185e-06 -5.31934e-09 2.35843e-08
1.31365e-06 -7.17315e-09 2.66407e-08
1.339e-06 -7.34898e-09 2.71867e-08
1.36301e-06 -6.06599e-09 2.46119e-08
1.38828e-06 -5.4201e-09 2.31965e-08
-1.53345e-08 1.12047e-05 -7.73243e-07
-2.91198e-08 1.28649e-05 -8.71985e-07
-2.88667e-08 1.28473e-05 -8.7281e-07
-1.73744e-08 1.11888e-05 -7.77651e-07
1.36835e-06 -7.6014e-09 2.76066e-08
1.39278e-06 -6.25123e-09 2.3936e-08
1.41834e-06 -5.60358e-09 2.23463e-08
-1.74279e-08 1.11735e-05 -7.68008e-07
-2.78194e-08 1.28303e-05 -8.57354e-07
1.39529e-06 -7.74746e-09 2.91497e-08
1.42053e-06 -6.38827e-09 2.3736e-08
1.44628e-06 -5.71214e-09 2.25621e-08
-3.00677e-08 1.28129e-05 -8.49038e-07
-1.94944e-08 1.11576e-05 -7.57941e-07
-1.55914e-08 9.81018e-06 -6.89439e-07
-1.01789e-08 8.55316e-06 -6.01186e-07
-9.93456e-09 7.41228e-06 -5.172e-07
1.3467e-06 -3.42334e-09 2.3489e-08
1.36513e-06 -2.86058e-09 2.29509e-08
1.32859e-06 -4.40494e-09 2.20959e-08
-1.43479e-08 9.79675e-06 -6.86777e-07
-8.82034e-09 7.40183e-06 -5.17415e-07
-1.00056e-08 8.54119e-06 -6.01653e-07
1.35732e-06 -4.53868e-09 2.22647e-08
1.37514e-06 -3.56003e-09 2.35272e-08
1.39399e-06 -2.98506e-09 2.29449e-08
-1.52676e-08 9.78357e-06 -6.86782e-07
-1.58722e-08 9.76984e-06 -6.90258e-07
-1.86918e-08 9.75562e-06 -6.89563e-07
-1.94125e-08 9.74244e-06 -6.86162e-07
-2.17731e-08 9.72856e-06 -6.81837e-07
1.42469e-06 -3.04526e-09 2.34026e-08
-7.45325e-09 7.39146e-06 -5.17407e-07
-8.15989e-09 8.52974e-06 -6.00851e-07
1.40573e-06 -3.63448e-09 2.37797e-08
-8.78337e-09 8.51746e-06 -6.02942e-07
-9.41474e-09 7.38096e-06 -5.18132e-07
1.38714e-06 -4.66689e-09 2.29103e-08
1.41416e-06 -4.72992e-09 2.34702e-08
1.43247e-06 -3.75577e-09 2.39007e-08
1.45181e-06 -3.14401e-09 2.34965e-08
-8.77059e-09 8.50513e-06 -6.00865e-07
-9.65981e-09 7.37004e-06 -5.16477e-07
1.44489e-06 -4.87796e-09 2.35059e-08
1.46419e-06 -3.85404e-09 2.41136e-08
1.48375e-06 -3.2125e-09 2.40559e-08
-9.70432e-09 8.49319e-06 -6.01327e-07
-1.02113e-08 7.35952e-06 -5.15912e-07
1.47306e-06 -4.94563e-09 2.40883e-08
1.49236e-06 -4.01791e-09 2.41427e-08
1.51214e-06 -3.34537e-09 2.41505e-08
-1.05027e-08 8.48114e-06 -5.99366e-07
-1.10311e-08 7.34901e-06 -5.11737e-07
-1.1755e-08 6.38126e-06 -4.48821e-07
-1.29511e-09 5.31765e-06 -3.72268e-07
-4.02778e-09 4.25728e-06 -3.00639e-07
-7.62856e-09 6.34103e-06 -4.49212e-07
-8.54944e-09 6.34937e-06 -4.50804e-07
-8.10162e-09 6.35748e-06 -4.49876e-07
1.36037e-06 -1.61477e-09 1.23615e-08
1.37203e-06 -1.37529e-09 1.14594e-08
3.31982e-09 5.28402e-06 -3.75336e-07
-1.26489e-09 4.2302e-06 -3.02282e-07
1.34778e-06 -2.095e-09 1.22801e-08
-1.6261e-09 4.23582e-06 -3.02453e-07
1.32327e-06 -2.02075e-09 1.22961e-08
1.33488e-06 -1.57574e-09 1.22594e-08
1.34625e-06 -1.35892e-09 1.11626e-08
1.29347e-06 -1.92327e-09 1.26288e-08
1.30478e-06 -1.50045e-09 1.23044e-08
1.31595e-06 -1.32245e-09 1.10143e-08
2.46581e-09 5.291e-06 -3.75895e-07
2.16893e-09 5.2978e-06 -3.74533e-07
-2.04387e-09 4.24129e-06 -3.01977e-07
-2.59524e-09 4.24662e-06 -3.01934e-07
1.2661e-06 -1.83212e-09 1.29047e-08
1.27723e-06 -1.43521e-09 1.24113e-08
1.2883e-06 -1.28386e-09 1.10406e-08
1.2438e-06 -1.7722e-09 1.28932e-08
1.25478e-06 -1.40369e-09 1.24253e-08
1.26551e-06 -1.24605e-09 1.08111e-08
-9.78624e-09 6.36533e-06 -4.51911e-07
5.43413e-10 5.30439e-06 -3.7517e-07
-9.73497e-09 6.37332e-06 -4.51239e-07
4.95744e-10 5.31103e-06 -3.74521e-07
-2.95755e-09 4.25195e-06 -3.01512e-07
1.22066e-06 -1.6932e-09 1.36937e-08
1.23128e-06 -1.34549e-09 1.2885e-08
1.24175e-06 -1.22803e-09 1.09165e-08
-1.54679e-09 2.13013e-06 -1.50961e-07
-2.20576e-09 3.17426e-06 -2.27944e-07
-2.4223e-09 3.17849e-06 -2.28601e-07
-2.36847e-09 3.18261e-06 -2.28209e-07
1.37938e-06 -6.03972e-10 1.22862e-08
1.38452e-06 -2.36816e-10 1.06195e-08
-9.27905e-10 2.11648e-06 -1.51316e-07
-4.71524e-10 1.05814e-06 -7.56439e-08
1.38549e-06 -8.93883e-11 -1.73509e-09
-8.51718e-10 2.11931e-06 -1.51426e-07
1.35333e-06 -5.90029e-10 1.20479e-08
1.35834e-06 -2.41954e-10 1.02899e-08
1.35985e-06 -9.75345e-11 -1.89102e-09
1.32276e-06 -5.5534e-10 1.17496e-08
1.32764e-06 -2.19688e-10 1.01051e-08
1.32908e-06 -9.69784e-11 -2.09054e-09
-4.2064e-10 1.05956e-06 -7.57729e-08
-1.01794e-09 2.12208e-06 -1.51126e-07
-3.83411e-10 1.06094e-06 -7.55661e-08
-1.05806e-09 2.12477e-06 -1.51435e-07
1.29496e-06 -5.52588e-10 1.13694e-08
1.29979e-06 -2.27128e-10 9.89492e-09
1.30127e-06 -1.17627e-10 -2.16122e-09
1.27201e-06 -5.19146e-10 1.13847e-08
1.27669e-06 -2.12775e-10 9.6189e-09
1.27811e-06 -1.21172e-10 -2.20686e-09
-2.84107e-09 3.18665e-06 -2.28326e-07
-3.54528e-10 1.0623e-06 -7.57818e-08
-2.71105e-09 3.19065e-06 -2.2806e-07
-1.15194e-09 2.12745e-06 -1.51084e-07
-3.04716e-10 1.06364e-06 -7.56006e-08
1.24803e-06 -5.02034e-10 1.12241e-08
1.25258e-06 -2.08393e-10 9.53674e-09
1.25395e-06 -1.35589e-10 -2.30339e-09
-2.92099e-09 3.19451e-06 -2.27957e-07
-3.14515e-10 1.06492e-06 -7.5624e-08
-9.2132e-09 6.33247e-06 -4.48898e-07
3.19552e-09 5.27687e-06 -3.756e-07
-1.27876e-09 4.22445e-06 -3.02352e-07
1.37885e-06 -2.19298e-09 1.24888e-08
1.39066e-06 -1.65728e-09 1.24278e-08
1.40247e-06 -1.40168e-09 1.16333e-08
-9.07449e-09 6.3235e-06 -4.47239e-07
3.96904e-09 5.26931e-06 -3.75587e-07
-7.83351e-10 4.21838e-06 -3.0222e-07
-1.11033e-08 6.30553e-06 -4.4626e-07
-1.25361e-08 6.29604e-06 -4.46247e-07
-1.30587e-08 6.28711e-06 -4.45574e-07
-1.41656e-08 6.27745e-06 -4.43446e-07
1.42103e-06 -1.71286e-09 1.25798e-08
1.43314e-06 -1.43752e-09 1.18604e-08
1.40831e-06 -2.28243e-09 1.25996e-08
-9.04785e-09 6.31454e-06 -4.4609e-07
1.43991e-06 -2.41291e-09 1.31819e-08
1.4519e-06 -1.77492e-09 1.27651e-08
1.46424e-06 -1.4836e-09 1.20344e-08
4.85161e-09 5.26188e-06 -3.7427e-07
-2.92964e-10 4.21233e-06 -3.02069e-07
5.20436e-09 5.25444e-06 -3.73851e-07
-3.55617e-10 4.20635e-06 -3.01497e-07
1.48029e-06 -1.79717e-09 1.32011e-08
1.49295e-06 -1.52375e-09 1.21999e-08
1.46752e-06 -2.48213e-09 1.38559e-08
4.91743e-09 5.24656e-06 -3.73029e-07
-5.23991e-10 4.20001e-06 -3.00906e-07
1.5001e-06 -2.60869e-09 1.45057e-08
1.51205e-06 -1.83501e-09 1.34616e-08
1.52489e-06 -1.56885e-09 1.21173e-08
4.11296e-09 5.23902e-06 -3.72661e-07
-1.77282e-10 4.19404e-06 -2.98593e-07
1.54165e-06 -1.88059e-09 1.36205e-08
1.52899e-06 -2.74147e-09 1.50219e-08
1.55412e-06 -1.62358e-09 1.22952e-08
3.47493e-09 5.23089e-06 -3.71042e-07
-4.76479e-10 4.18743e-06 -2.98929e-07
-2.37826e-09 3.16992e-06 -2.27952e-07
-9.97835e-10 2.11357e-06 -1.51434e-07
-5.57882e-10 1.05668e-06 -7.56894e-08
1.40994e-06 -6.21749e-10 1.2352e-08
1.41515e-06 -2.5203e-10 1.08301e-08
1.4167e-06 -7.12479e-11 -1.65372e-09
-2.24122e-09 3.16537e-06 -2.27771e-07
-8.42374e-10 2.11052e-06 -1.51268e-07
-5.43912e-10 1.05515e-06 -7.55955e-08
1.44087e-06 -6.41606e-10 1.272e-08
1.44559e-06 -2.74078e-10 1.10846e-08
1.4472e-06 -7.82484e-11 -1.57961e-09
-2.14549e-09 3.16079e-06 -2.27792e-07
1.47214e-06 -6.58254e-10 1.29201e-08
1.47758e-06 -2.63258e-10 1.14116e-08
1.47918e-06 -4.78764e-11 -1.59472e-09
-7.27814e-10 2.10746e-06 -1.51362e-07
-5.69552e-10 1.05362e-06 -7.56317e-08
-2.52915e-09 3.15628e-06 -2.27506e-07
-2.79816e-09 3.1515e-06 -2.271e-07
-2.81711e-09 3.14698e-06 -2.25638e-07
-3.1671e-09 3.14201e-06 -2.25834e-07
-7.72277e-10 2.10441e-06 -1.51602e-07
-6.95097e-10 1.05209e-06 -7.57446e-08
1.50102e-06 -6.7692e-10 1.30434e-08
1.5059e-06 -2.67725e-10 1.16364e-08
1.50752e-06 -3.31018e-11 -1.68964e-09
-8.92356e-10 2.10118e-06 -1.51814e-07
-7.6457e-10 1.05048e-06 -7.57933e-08
1.53312e-06 -7.12764e-10 1.31307e-08
1.53877e-06 -2.73882e-10 1.20748e-08
1.54041e-06 -2.01473e-11 -1.43683e-09
-8.75054e-10 2.09813e-06 -1.50988e-07
-8.40771e-10 1.04895e-06 -7.54241e-08
1.56258e-06 -7.59719e-10 1.3336e-08
1.56838e-06 -2.8775e-10 1.25776e-08
1.57007e-06 -1.86408e-11 -1.33476e-09
-9.89145e-10 2.0948e-06 -1.51192e-07
-9.34281e-10 1.04728e-06 -7.55032e-08
4.76788e-14 1.02696e-10 -7.44052e-12
5.4417e-14 1.03387e-10 -7.46641e-12
5.1702e-14 1.02085e-10 -7.4012e-12
1.22944e-06 1.25033e-10 1.95881e-09
1.22811e-06 1.97536e-10 -9.85084e-09
1.22356e-06 4.84123e-10 -1.12288e-08
1.21738e-06 1.18952e-09 -1.14313e-08
1.20699e-06 1.29866e-09 -1.32085e-08
1.19642e-06 1.64449e-09 -1.40349e-08
1.18588e-06 2.29756e-09 -2.02884e-08
1.17032e-06 2.77031e-09 -2.26743e-08
4.48407e-15 1.16776e-10 -8.30667e-12
-4.15887e-10 -1.06475e-06 7.57078e-08
-1.58933e-09 -2.12991e-06 1.51441e-07
-3.34623e-09 -3.19447e-06 2.28107e-07
1.38598e-06 3.47257e-11 1.47149e-09
1.38453e-06 2.26208e-10 -1.11973e-08
1.37936e-06 6.02257e-10 -1.22424e-08
4.75904e-14 1.04895e-10 -7.5534e-12
-5.03502e-10 -1.05792e-06 7.61301e-08
-1.06042e-09 -2.11625e-06 1.52301e-07
-9.91216e-10 -2.1191e-06 1.52067e-07
1.35984e-06 6.15387e-11 1.65521e-09
1.35842e-06 2.27463e-10 -1.08927e-08
1.35333e-06 5.87973e-10 -1.20588e-08
1.32904e-06 7.29397e-11 1.90701e-09
1.32766e-06 2.10618e-10 -1.0599e-08
1.32276e-06 5.50964e-10 -1.19081e-08
3.62083e-14 1.05291e-10 -7.57347e-12
-4.64819e-10 -1.05934e-06 7.6116e-08
2.62292e-14 1.05706e-10 -7.55587e-12
-4.0821e-10 -1.06073e-06 7.57748e-08
-1.11333e-09 -2.12186e-06 1.51574e-07
-2.31735e-09 -3.17402e-06 2.29473e-07
-2.49061e-09 -3.17827e-06 2.29853e-07
-2.34711e-09 -3.18238e-06 2.29107e-07
1.14975e-14 1.24657e-10 -8.90666e-12
-1.10258e-09 -2.1245e-06 1.51739e-07
1.30127e-06 1.06285e-10 2.07074e-09
1.29991e-06 2.24645e-10 -1.02495e-08
1.29514e-06 5.45687e-10 -1.16149e-08
1.27805e-06 1.00931e-10 2.02649e-09
1.27668e-06 2.05488e-10 -1.01117e-08
1.27195e-06 5.15513e-10 -1.15093e-08
-3.64502e-10 -1.06205e-06 7.59118e-08
-2.75644e-09 -3.18637e-06 2.2904e-07
4.75743e-15 1.20135e-10 -8.56454e-12
-3.25482e-10 -1.06341e-06 7.576e-08
-1.22348e-09 -2.12723e-06 1.51519e-07
-2.75013e-09 -3.19044e-06 2.28618e-07
1.25391e-06 1.28389e-10 2.19259e-09
1.25257e-06 2.06856e-10 -9.90295e-09
1.24797e-06 4.98225e-10 -1.13677e-08
-4.11329e-09 -4.25709e-06 3.01396e-07
-1.34084e-09 -5.31743e-06 3.7257e-07
-1.17868e-08 -6.38104e-06 4.49122e-07
1.37211e-06 1.3951e-09 -1.18281e-08
1.36042e-06 1.60704e-09 -1.25239e-08
-1.50402e-09 -4.22995e-06 3.04216e-07
3.19048e-09 -5.28383e-06 3.75797e-07
1.34781e-06 2.0933e-09 -1.24019e-08
-1.80652e-09 -4.2356e-06 3.04096e-07
1.34636e-06 1.37662e-09 -1.15924e-08
1.33492e-06 1.56708e-09 -1.24471e-08
1.3233e-06 2.01889e-09 -1.2432e-08
1.31605e-06 1.33038e-09 -1.15365e-08
1.30481e-06 1.49106e-09 -1.24787e-08
2.37207e-09 -5.29082e-06 3.762e-07
-2.11922e-09 -4.24106e-06 3.0335e-07
2.10762e-09 -5.29762e-06 3.74798e-07
1.29282e-06 1.91842e-09 -1.27717e-08
-7.74606e-09 -6.34086e-06 4.49666e-07
-8.63692e-09 -6.34919e-06 4.51122e-07
-8.14701e-09 -6.3573e-06 4.50113e-07
-2.56108e-09 -4.24633e-06 3.03139e-07
1.28864e-06 1.28312e-09 -1.16061e-08
1.2776e-06 1.4269e-09 -1.25644e-08
1.26655e-06 1.82992e-09 -1.30244e-08
1.26552e-06 1.25252e-09 -1.12882e-08
1.25471e-06 1.39465e-09 -1.25772e-08
1.24371e-06 1.76952e-09 -1.30075e-08
5.14795e-10 -5.30416e-06 3.75413e-07
-9.78946e-09 -6.3651e-06 4.52097e-07
-3.08319e-09 -4.25175e-06 3.0249e-07
4.62786e-10 -5.3108e-06 3.74726e-07
-9.7484e-09 -6.3731e-06 4.51419e-07
1.24173e-06 1.23003e-09 -1.12589e-08
1.23124e-06 1.33839e-09 -1.30207e-08
1.22059e-06 1.69184e-09 -1.38016e-08
4.14862e-14 1.01306e-10 -7.3347e-12
5.57441e-14 1.03922e-10 -7.48855e-12
4.92726e-14 1.01621e-10 -7.34438e-12
-9.85021e-10 -2.11333e-06 1.52058e-07
5.98214e-14 1.04433e-10 -7.52397e-12
-5.81019e-10 -1.05646e-06 7.60738e-08
-2.4171e-09 -3.16967e-06 2.29075e-07
1.41666e-06 3.72447e-11 1.42913e-09
1.41519e-06 2.42802e-10 -1.14097e-08
1.40993e-06 6.20688e-10 -1.22193e-08
-5.67844e-10 -1.05494e-06 7.5997e-08
-9.7912e-10 -2.1103e-06 1.52087e-07
-2.28905e-09 -3.16515e-06 2.28859e-07
1.44623e-06 2.47365e-10 -1.17712e-08