# vtk DataFile Version 3.0
vtk output
ASCII
DATASET POLYDATA
POINTS 21109 float
0.20391 0.929723 -0.0527085
0.182644 0.929947 -0.052586
0.193285 0.924836 -0.0525489
0.170789 0.995015 -0.0562034
0.170987 0.985023 -0.0555874
0.160042 0.990128 -0.0555199
0.171163 0.975025 -0.0550164
0.160259 0.98013 -0.0548939
0.149182 0.995237 -0.0550239
0.149424 0.985241 -0.0544402
0.171338 0.965035 -0.0544084
0.16046 0.97014 -0.0542997
0.149686 0.975247 -0.0537704
0.160665 0.960147 -0.0536879
0.138683 0.990348 -0.053538
0.160843 0.950151 -0.0531034
0.149895 0.965256 -0.0531811
0.138906 0.980351 -0.0529923
0.150097 0.955259 -0.0526076
0.161014 0.940161 -0.0525517
0.139117 0.97036 -0.0524445
0.1825 0.93994 -0.0531052
0.193164 0.934829 -0.0530725
0.203785 0.939718 -0.053295
0.214548 0.934625 -0.0527379
0.225084 0.93953 -0.0528368
0.171703 0.945045 -0.0531945
0.171503 0.955037 -0.0538255
0.193032 0.944821 -0.0536632
0.214438 0.944615 -0.0533709
0.18234 0.949932 -0.0537353
0.203652 0.949709 -0.0539513
0.19287 0.954816 -0.0543068
0.214303 0.954604 -0.0540512
0.203526 0.959703 -0.0545366
0.19271 0.964808 -0.0549149
0.181529 0.999896 -0.0568054
0.181682 0.989904 -0.0561918
0.203014 0.999667 -0.0570381
0.192283 0.994787 -0.0567475
0.213815 0.994569 -0.056664
0.22442 0.999465 -0.0567855
0.192428 0.984792 -0.0561447
0.203147 0.989679 -0.056416
0.224524 0.989476 -0.0561361
0.23501 0.994383 -0.0563429
0.203278 0.979684 -0.0558005
0.213956 0.984579 -0.0560028
0.235113 0.984391 -0.0557019
0.192572 0.9748 -0.0555479
0.214066 0.974584 -0.05537
0.181872 0.97991 -0.0555585
0.22464 0.979487 -0.0554704
0.182015 0.969918 -0.0549617
0.203409 0.969692 -0.0551711
0.224747 0.969493 -0.0548151
0.235226 0.974402 -0.0550413
0.214179 0.964596 -0.0547111
0.182164 0.959927 -0.0543701
0.224855 0.959508 -0.0541592
0.235332 0.964415 -0.0543726
0.235442 0.954423 -0.0537105
0.224977 0.949518 -0.053503
0.235557 0.944435 -0.0530332
0.171864 0.935055 -0.0526294
0.235641 0.934447 -0.0523849
0.170601 1.00501 -0.0568387
0.159822 1.00012 -0.0561565
0.148932 1.00523 -0.0556463
0.138492 1.00034 -0.0539946
0.159616 1.01011 -0.0567098
0.138248 1.01033 -0.0545439
0.170393 1.015 -0.0574666
0.148724 1.01522 -0.0562458
0.159408 1.0201 -0.0573443
0.138106 1.02033 -0.0549913
0.170176 1.02499 -0.0581303
0.148542 1.02521 -0.0567403
0.159169 1.03009 -0.0580134
0.137821 1.03032 -0.0555756
0.170015 1.03498 -0.0587317
0.148329 1.03521 -0.0573488
0.158958 1.04009 -0.0586407
0.137487 1.04031 -0.0562631
0.169797 1.04497 -0.0593784
0.148068 1.0452 -0.0579201
0.158749 1.05007 -0.0592569
0.137206 1.05031 -0.0568755
0.169625 1.05496 -0.0599473
0.14785 1.05519 -0.0584828
0.158504 1.06007 -0.0598471
0.136896 1.0603 -0.0574857
0.169371 1.06495 -0.0606059
0.147613 1.06518 -0.0590011
0.126228 1.06543 -0.0560387
0.126535 1.05543 -0.0554166
0.126871 1.04543 -0.0547525
0.127259 1.03543 -0.0540505
0.127576 1.02543 -0.0534079
0.116451 1.06054 -0.0529867
0.127713 1.01544 -0.0530887
0.127959 1.00544 -0.0525593
0.116796 1.05055 -0.0523888
0.192149 1.00478 -0.0573332
0.213705 1.00456 -0.057279
0.234912 1.00437 -0.0569841
0.181342 1.00989 -0.0574235
0.202878 1.00966 -0.0576269
0.224304 1.00945 -0.0574327
0.191989 1.01477 -0.0579407
0.213584 1.01455 -0.0579071
0.234813 1.01436 -0.0576231
0.181172 1.01988 -0.0580185
0.202745 1.01965 -0.0582217
0.224213 1.01945 -0.0580455
0.191807 1.02476 -0.0586255
0.213481 1.02454 -0.058488
0.234731 1.02435 -0.058241
0.18097 1.02987 -0.058681
0.202609 1.02964 -0.0588334
0.224104 1.02943 -0.0586814
0.19165 1.03475 -0.0592254
0.213371 1.03453 -0.0590671
0.234642 1.03434 -0.0588623
0.180807 1.03986 -0.0592766
0.180632 1.04985 -0.0599051
0.180458 1.05984 -0.0605194
0.224013 1.03943 -0.0592687
0.20248 1.03964 -0.0593951
0.191484 1.04474 -0.0598348
0.213244 1.04452 -0.0596573
0.234542 1.04433 -0.0594967
0.202324 1.04962 -0.060026
0.223912 1.04941 -0.0598624
0.191353 1.05473 -0.0603839
0.213115 1.05451 -0.0602454
0.234448 1.05432 -0.0601162
0.202161 1.05961 -0.0606396
0.223785 1.0594 -0.0604698
0.19116 1.06472 -0.0610128
0.21296 1.0645 -0.0608395
0.23433 1.0643 -0.0607334
0.317854 0.933913 -0.0531592
0.338166 0.933813 -0.053433
0.35848 0.933738 -0.0534564
0.276996 0.93415 -0.0527784
0.297464 0.93403 -0.0529806
0.338208 0.923829 -0.0528031
0.358515 0.923754 -0.0528213
0.328036 0.928871 -0.0530203
0.348352 0.928783 -0.0531035
0.297523 0.924044 -0.052354
0.266746 0.929226 -0.0523721
0.287271 0.929097 -0.0526459
0.25636 0.934291 -0.0526725
0.307711 0.928982 -0.0527138
0.328083 0.918886 -0.0523935
0.348391 0.918798 -0.0524792
0.317907 0.923932 -0.0525494
0.36861 0.928711 -0.05319
0.419194 0.93358 -0.0536761
0.45963 0.933528 -0.0537042
0.388924 0.928655 -0.0532592
0.409086 0.92861 -0.0533168
0.429316 0.928579 -0.0532646
0.378751 0.933675 -0.0536236
0.398993 0.933625 -0.053604
0.449542 0.928549 -0.0533281
0.469724 0.928537 -0.0532763
0.489888 0.928532 -0.0532177
0.439435 0.933558 -0.0535616
0.4798 0.933527 -0.0535483
0.378797 0.923693 -0.052994
0.399022 0.923643 -0.0529614
0.419223 0.923603 -0.0530368
0.43945 0.923577 -0.0529176
0.459633 0.923551 -0.0530588
0.479801 0.923546 -0.0529
0.368638 0.91873 -0.0525723
0.37884 0.91371 -0.052365
0.399051 0.913661 -0.0523221
0.419245 0.913621 -0.0523937
0.388976 0.918676 -0.0526372
0.409119 0.918631 -0.052677
0.429335 0.918601 -0.0526186
0.459638 0.91357 -0.0524127
0.449549 0.918571 -0.052684
0.469719 0.918558 -0.0526299
0.489871 0.918553 -0.0525735
0.287191 0.939078 -0.0532637
0.245984 0.939355 -0.0528593
0.266665 0.939213 -0.0529848
0.297404 0.94401 -0.0535677
0.256265 0.94427 -0.0532659
0.276933 0.944134 -0.0533956
0.266583 0.949192 -0.0535895
0.287133 0.949061 -0.0538906
0.276839 0.954116 -0.0540222
0.297334 0.953996 -0.0542089
0.287044 0.959043 -0.0545195
0.29725 0.963976 -0.0548465
0.245345 0.999266 -0.0566583
0.245429 0.989278 -0.0560162
0.297121 0.983943 -0.0561038
0.286772 0.998973 -0.0570198
0.27654 0.994046 -0.0565282
0.297062 0.993925 -0.0567362
0.266169 0.999108 -0.0567592
0.266239 0.989124 -0.0561296
0.286843 0.988995 -0.0564037
0.25578 0.994185 -0.0564101
0.286906 0.979007 -0.0557773
0.276619 0.984068 -0.0559025
0.255862 0.984203 -0.0557807
0.24552 0.979287 -0.0553692
0.27668 0.974081 -0.0552791
0.29719 0.973961 -0.0554781
0.266328 0.979144 -0.0554979
0.266404 0.969156 -0.0548621
0.286981 0.969025 -0.0551625
0.255965 0.974221 -0.0551638
0.256046 0.964235 -0.0545354
0.276763 0.964101 -0.0546557
0.245653 0.969305 -0.0547501
0.245743 0.959321 -0.0541244
0.266495 0.95918 -0.054225
0.256164 0.954255 -0.0539155
0.245879 0.949338 -0.0535151
0.348312 0.938763 -0.0537326
0.368592 0.938694 -0.0538315
0.327979 0.938852 -0.0536517
0.307643 0.938963 -0.0533311
0.338126 0.94379 -0.0540603
0.358448 0.943714 -0.0540878
0.317804 0.943895 -0.0537838
0.327933 0.948833 -0.0542998
0.348272 0.948743 -0.0543844
0.368557 0.948674 -0.0544823
0.307588 0.948945 -0.0539678
0.338072 0.953774 -0.05473
0.358401 0.953697 -0.0547532
0.317737 0.953879 -0.0544486
0.327874 0.958814 -0.0549402
0.348224 0.958724 -0.0550264
0.36852 0.958655 -0.0551234
0.307512 0.958926 -0.0545995
0.307264 0.998858 -0.0570973
0.307332 0.988879 -0.0564831
0.307386 0.978891 -0.055856
0.338016 0.963754 -0.0553862
0.358356 0.963676 -0.0554071
0.317666 0.963858 -0.0551014
0.307452 0.968907 -0.0552571
0.327824 0.968794 -0.0556028
0.348183 0.968703 -0.0556872
0.368488 0.968634 -0.0557648
0.33798 0.973735 -0.0560313
0.358326 0.973657 -0.0560554
0.317564 0.983823 -0.0563745
0.348143 0.978684 -0.05632
0.368454 0.978615 -0.0564015
0.337945 0.983722 -0.0566542
0.358293 0.983642 -0.0566962
0.327736 0.988761 -0.0568684
0.348108 0.98867 -0.0569542
0.368422 0.9886 -0.0570394
0.337897 0.993699 -0.0573026
0.358254 0.993619 -0.0573428
0.348074 0.998647 -0.0575954
0.368394 0.998577 -0.0576823
0.327695 0.998742 -0.057513
0.317514 0.993803 -0.0570315
0.327779 0.978779 -0.0562507
0.31762 0.97384 -0.0557499
0.296991 1.00391 -0.0573641
0.255682 1.00417 -0.0569799
0.276476 1.00404 -0.0571438
0.245248 1.00926 -0.0573075
0.266062 1.00909 -0.0573944
0.286705 1.00896 -0.0576719
0.276393 1.01402 -0.0578111
0.29693 1.0139 -0.0580241
0.255591 1.01416 -0.0576281
0.245152 1.01925 -0.0579442
0.28663 1.01895 -0.0583045
0.265981 1.01908 -0.05803
0.296849 1.02387 -0.0587098
0.25547 1.02414 -0.0582792
0.276319 1.024 -0.0584692
0.245057 1.02923 -0.0585943
0.265873 1.02906 -0.0586747
0.286558 1.02893 -0.0589451
0.24498 1.03922 -0.0592193
0.244911 1.04921 -0.0598261
0.244821 1.0592 -0.0604497
0.276223 1.03398 -0.0590955
0.296782 1.03387 -0.0593186
0.255362 1.03412 -0.0589024
0.286477 1.03891 -0.0595682
0.265788 1.03904 -0.0592976
0.255297 1.04411 -0.0595244
0.276152 1.04397 -0.0597355
0.296729 1.04385 -0.0599268
0.286418 1.0489 -0.0601849
0.265713 1.04903 -0.0598905
0.255218 1.0541 -0.0601491
0.296638 1.05383 -0.0605605
0.276068 1.05396 -0.0603688
0.286304 1.05888 -0.0608265
0.265581 1.05901 -0.0605069
0.255139 1.06409 -0.0607847
0.275943 1.06394 -0.0609951
0.296557 1.06382 -0.0611867
0.317458 1.00379 -0.0576522
0.337853 1.00368 -0.0579425
0.358214 1.0036 -0.0579845
0.307202 1.00885 -0.0577486
0.327638 1.00872 -0.0581639
0.348033 1.00863 -0.0582547
0.368362 1.00856 -0.0583466
0.337804 1.01367 -0.058592
0.358179 1.01359 -0.0586342
0.317407 1.01377 -0.0582866
0.307138 1.01883 -0.0583846
0.368334 1.01854 -0.0589931
0.327587 1.01871 -0.0588013
0.348002 1.01862 -0.0588835
0.317331 1.02375 -0.0589531
0.337759 1.02365 -0.0592246
0.358145 1.02357 -0.0592728
0.307072 1.02882 -0.0590553
0.30701 1.0388 -0.0596817
0.306964 1.04878 -0.0603001
0.306879 1.05877 -0.0609482
0.327513 1.02869 -0.0594495
0.34795 1.0286 -0.0595356
0.368301 1.02852 -0.0596378
0.317284 1.03374 -0.0595757
0.337714 1.03363 -0.0598654
0.358109 1.03355 -0.0599147
0.368269 1.0385 -0.0602926
0.32747 1.03868 -0.0600824
0.347917 1.03858 -0.0601671
0.317235 1.04373 -0.0601988
0.337672 1.04362 -0.0604843
0.358074 1.04353 -0.060543
0.32741 1.04865 -0.0607185
0.347878 1.04856 -0.0608088
0.368244 1.04849 -0.0609368
0.317166 1.05371 -0.06084
0.358035 1.05351 -0.0612008
[...]
POINT_DATA 21109
VECTORS alpha float
9.12281e-07 -6.88171e-09 5.82233e-08
8.88688e-07 -7.12688e-09 5.75004e-08
-2.56003e-07 1.99931e-05 -1.2505e-06
-3.21555e-07 2.0064e-05 -1.29251e-06
-3.03082e-07 2.00825e-05 -1.24798e-06
9.72108e-07 -8.60712e-09 3.49089e-08
-2.75903e-07 2.01022e-05 -1.24783e-06
9.47959e-07 -8.28573e-09 3.44596e-08
-3.66486e-07 1.90696e-05 -1.14952e-06
-3.62788e-07 1.90885e-05 -1.15131e-06
-2.57951e-07 2.01209e-05 -1.24496e-06
9.30548e-07 -8.055e-09 3.50023e-08
-3.59155e-07 1.91084e-05 -1.15709e-06
9.14157e-07 -7.83741e-09 3.5403e-08
9.23219e-07 -8.00328e-09 -1.55384e-08
8.96654e-07 -7.60847e-09 3.62004e-08
-3.52065e-07 1.9127e-05 -1.13758e-06
9.00472e-07 -7.71595e-09 -1.3296e-08
-3.47944e-07 1.91448e-05 -1.16222e-06
8.79679e-07 -7.40935e-09 3.7329e-08
8.84352e-07 -7.49648e-09 -1.12882e-08
9.07306e-07 -7.34673e-09 5.55439e-08
-2.53042e-07 1.99757e-05 -1.24312e-06
9.31524e-07 -7.11184e-09 5.83702e-08
-1.83759e-07 1.8774e-05 -1.19769e-06
9.4848e-07 -6.68481e-09 4.16298e-08
-2.60617e-07 2.0158e-05 -1.2468e-06
-2.66854e-07 2.014e-05 -1.24981e-06
-2.5234e-07 1.99574e-05 -1.25519e-06
-1.8025e-07 1.87567e-05 -1.21149e-06
9.25825e-07 -7.56311e-09 5.67035e-08
9.4948e-07 -7.30838e-09 5.96439e-08
-2.45041e-07 1.99389e-05 -1.26073e-06
-1.80061e-07 1.87399e-05 -1.22296e-06
9.68796e-07 -7.51494e-09 5.96302e-08
-2.35701e-07 1.99205e-05 -1.24327e-06
1.02294e-06 -8.77827e-09 5.59111e-08
1.00492e-06 -8.52208e-09 5.52877e-08
1.04676e-06 -8.46859e-09 5.9746e-08
-2.37091e-07 1.98627e-05 -1.27139e-06
-1.80262e-07 1.86667e-05 -1.23791e-06
1.06242e-06 -7.92635e-09 4.52404e-08
-2.23735e-07 1.98814e-05 -1.25247e-06
1.02848e-06 -8.2322e-09 5.97821e-08
1.04459e-06 -7.693e-09 4.51933e-08
-1.33508e-07 1.68834e-05 -1.13763e-06
1.0048e-06 -7.95381e-09 5.9635e-08
-1.78269e-07 1.86854e-05 -1.23978e-06
-1.24721e-07 1.69004e-05 -1.13627e-06
-2.2389e-07 1.99009e-05 -1.23958e-06
-1.75272e-07 1.87043e-05 -1.24463e-06
9.80801e-07 -8.25238e-09 5.47653e-08
1.02082e-06 -7.46975e-09 4.42805e-08
9.63179e-07 -8.0052e-09 5.64376e-08
9.86333e-07 -7.72283e-09 6.02638e-08
1.00293e-06 -7.23706e-09 4.44673e-08
-1.26349e-07 1.69177e-05 -1.14028e-06
-1.70859e-07 1.87219e-05 -1.23179e-06
9.45853e-07 -7.79627e-09 5.79774e-08
9.85706e-07 -7.05347e-09 4.42134e-08
-1.17791e-07 1.69339e-05 -1.11791e-06
-1.11184e-07 1.69498e-05 -1.11824e-06
9.66052e-07 -6.86559e-09 4.31969e-08
-1.09195e-07 1.69651e-05 -1.11469e-06
-2.54825e-07 2.0176e-05 -1.24039e-06
-1.11469e-07 1.69811e-05 -1.10736e-06
-3.46303e-07 2.00439e-05 -1.32361e-06
9.90224e-07 -8.85075e-09 3.54856e-08
-3.84382e-07 1.90502e-05 -1.17587e-06
9.38969e-07 -8.20255e-09 -1.86646e-08
1.01189e-06 -9.1417e-09 3.47067e-08
9.59582e-07 -8.47556e-09 -2.02572e-08
-3.54164e-07 2.00236e-05 -1.34386e-06
-4.02245e-07 1.90306e-05 -1.20491e-06
1.03041e-06 -9.42272e-09 3.47398e-08
9.75634e-07 -8.70167e-09 -2.46509e-08
-3.52574e-07 2.00031e-05 -1.34021e-06
-4.24189e-07 1.90111e-05 -1.23656e-06
1.05062e-06 -9.69916e-09 3.62697e-08
9.9606e-07 -8.97488e-09 -2.57746e-08
-3.58114e-07 1.9982e-05 -1.33253e-06
-4.26359e-07 1.89904e-05 -1.22932e-06
1.07502e-06 -1.00477e-08 3.76377e-08
1.02053e-06 -9.28941e-09 -2.51893e-08
-3.40923e-07 1.99599e-05 -1.32471e-06
-4.2372e-07 1.89695e-05 -1.19428e-06
1.1033e-06 -1.04143e-08 3.80759e-08
1.04722e-06 -9.66233e-09 -2.62218e-08
-3.4584e-07 1.99373e-05 -1.31869e-06
-4.08297e-07 1.89467e-05 -1.16445e-06
1.12233e-06 -1.07282e-08 3.774e-08
1.06554e-06 -9.93239e-09 -2.67421e-08
-3.6023e-07 1.99155e-05 -1.32752e-06
-4.30975e-07 1.89262e-05 -1.17038e-06
-4.01805e-07 1.70519e-05 -1.00311e-06
-3.82311e-07 1.70717e-05 -9.92198e-07
-3.93537e-07 1.70931e-05 -1.00086e-06
-3.97117e-07 1.71135e-05 -1.03059e-06
-4.04058e-07 1.71333e-05 -1.02648e-06
9.78325e-07 -8.16978e-09 -1.23435e-07
-4.01882e-07 1.71537e-05 -9.81233e-07
-3.88704e-07 1.7172e-05 -9.6552e-07
9.61547e-07 -7.9309e-09 -1.20841e-07
-2.4648e-07 1.98426e-05 -1.28659e-06
-1.81844e-07 1.86476e-05 -1.22917e-06
-1.28626e-07 1.68664e-05 -1.13243e-06
1.04571e-06 -9.04338e-09 5.70041e-08
1.06938e-06 -8.76002e-09 5.95493e-08
1.08525e-06 -8.13452e-09 4.60558e-08
-2.44872e-07 1.98224e-05 -1.29816e-06
-1.83733e-07 1.86282e-05 -1.22927e-06
-1.32495e-07 1.68483e-05 -1.13297e-06
1.06479e-06 -9.32987e-09 5.68951e-08
1.08947e-06 -9.03991e-09 5.93177e-08
1.10521e-06 -8.40662e-09 4.5842e-08
-2.5359e-07 1.98022e-05 -1.28621e-06
-1.85781e-07 1.86085e-05 -1.21294e-06
-1.29455e-07 1.68299e-05 -1.13627e-06
1.08453e-06 -9.60845e-09 5.83398e-08
1.10947e-06 -9.32293e-09 5.88359e-08
1.12505e-06 -8.62779e-09 4.58086e-08
-2.49995e-07 1.97816e-05 -1.28635e-06
-1.87991e-07 1.85897e-05 -1.20394e-06
-1.37978e-07 1.68121e-05 -1.13833e-06
1.10808e-06 -9.90169e-09 5.97114e-08
1.13696e-06 -1.02813e-08 6.2802e-08
1.15719e-06 -1.0589e-08 6.43245e-08
1.14886e-06 -8.91634e-09 4.55991e-08
1.13341e-06 -9.64376e-09 5.84085e-08
-2.43298e-07 1.97604e-05 -1.30051e-06
-1.90408e-07 1.85693e-05 -1.21207e-06
-1.37699e-07 1.67932e-05 -1.13887e-06
1.16217e-06 -9.9741e-09 6.02268e-08
1.1766e-06 -9.26291e-09 4.55082e-08
-2.44064e-07 1.97383e-05 -1.29093e-06
-1.94281e-07 1.85486e-05 -1.20745e-06
-1.43407e-07 1.67741e-05 -1.13459e-06
1.18218e-06 -1.02604e-08 6.04106e-08
1.19744e-06 -9.4981e-09 4.57583e-08
-2.55034e-07 1.97169e-05 -1.29296e-06
-2.05036e-07 1.85281e-05 -1.21887e-06
-1.53843e-07 1.67552e-05 -1.12741e-06
-3.2196e-08 9.95598e-06 -6.80676e-07
-2.75097e-08 8.68136e-06 -5.94156e-07
-2.44616e-08 7.52453e-06 -5.18666e-07
-6.17502e-08 1.30994e-05 -8.62981e-07
-4.01642e-08 1.14131e-05 -7.62772e-07
-2.62136e-08 8.68971e-06 -5.93546e-07
-2.19074e-08 7.532e-06 -5.16501e-07
1.01533e-06 -3.29791e-09 2.04695e-08
1.02936e-06 -2.72429e-09 2.02947e-08
-4.07978e-08 1.14239e-05 -7.68758e-07
9.63297e-07 -5.26532e-09 2.49805e-08
9.81959e-07 -4.60625e-09 2.116e-08
-8.79937e-08 1.49985e-05 -9.77295e-07
9.99307e-07 -4.05167e-09 1.72536e-08
9.96543e-07 -3.18844e-09 2.0569e-08
1.01047e-06 -2.63642e-09 2.02239e-08
-2.78479e-08 9.9652e-06 -6.8112e-07
1.04257e-06 -2.26878e-09 1.71808e-08
-6.509e-09 4.28991e-06 -3.00411e-07
-2.28621e-09 2.14657e-06 -1.50678e-07
1.05105e-06 -1.65753e-09 1.40919e-08
1.06056e-06 -1.34195e-09 1.26215e-08
1.06919e-06 -1.21173e-09 9.33223e-09
-7.9548e-09 6.42982e-06 -4.4439e-07
-3.34293e-09 5.35797e-06 -3.75461e-07
1.07476e-06 -5.13373e-10 1.06061e-08
1.07864e-06 -2.57873e-10 8.50459e-09
1.07974e-06 -1.9365e-10 -2.29727e-09
-2.1392e-09 3.21923e-06 -2.26743e-07
-5.4171e-10 1.07317e-06 -7.54057e-08
-6.23308e-09 6.43628e-06 -4.43645e-07
-2.78974e-09 5.36331e-06 -3.7518e-07
-6.13835e-09 4.29406e-06 -3.01093e-07
-1.58503e-09 3.22248e-06 -2.27005e-07
-1.92369e-09 2.14867e-06 -1.50798e-07
-3.95503e-10 1.07427e-06 -7.53837e-08
1.02348e-06 -2.21897e-09 1.67628e-08
-4.73165e-09 6.4427e-06 -4.41972e-07
-2.39322e-09 5.36869e-06 -3.72966e-07
-5.92974e-09 4.29838e-06 -2.99693e-07
1.03127e-06 -1.58437e-09 1.46705e-08
1.04074e-06 -1.2906e-09 1.31044e-08
1.04922e-06 -1.17876e-09 9.35198e-09
-1.73652e-09 2.15084e-06 -1.50186e-07
1.0548e-06 -4.95122e-10 1.07176e-08
1.05869e-06 -2.64802e-10 8.36757e-09
1.05984e-06 -2.23292e-10 -2.49932e-09
1.00242e-06 -4.73946e-09 2.08627e-08
9.67805e-07 -6.09362e-09 3.20513e-08
9.83323e-07 -5.4262e-09 2.5003e-08
-3.73465e-08 1.14017e-05 -7.62383e-07
-8.46204e-08 1.49844e-05 -9.7836e-07
-5.55093e-08 1.30863e-05 -8.65156e-07
1.0007e-06 -5.57305e-09 2.49208e-08
1.01945e-06 -4.86824e-09 2.11155e-08
-5.45688e-08 1.30739e-05 -8.7132e-07
-3.58435e-08 1.139e-05 -7.6864e-07
1.04057e-06 -4.98549e-09 2.19574e-08
-3.58907e-08 1.13784e-05 -7.76266e-07
1.08502e-06 -7.25877e-09 3.55755e-08
1.06746e-06 -7.06316e-09 3.43925e-08
-3.26774e-08 1.13542e-05 -7.80526e-07
1.12203e-06 -5.52987e-09 2.37034e-08
-4.01862e-08 1.30194e-05 -8.87914e-07
-2.91918e-08 1.13411e-05 -7.87811e-07
1.10262e-06 -6.36673e-09 2.699e-08
1.08341e-06 -6.19085e-09 2.67231e-08
1.1024e-06 -5.40013e-09 2.33486e-08
-7.55214e-08 1.4909e-05 -9.97753e-07
1.07899e-06 -5.2464e-09 2.32104e-08
-4.27019e-08 1.30334e-05 -8.85796e-07
-7.73535e-08 1.49252e-05 -9.94759e-07
1.04443e-06 -6.84047e-09 3.35532e-08
-4.53545e-08 1.30473e-05 -8.78667e-07
-3.08415e-08 1.13662e-05 -7.76069e-07
1.05935e-06 -6.03469e-09 2.62806e-08
1.04044e-06 -5.85751e-09 2.60806e-08
1.05957e-06 -5.11102e-09 2.2704e-08
-8.04901e-08 1.49405e-05 -9.93116e-07
-8.09361e-08 1.49554e-05 -9.90098e-07
-4.89865e-08 1.30607e-05 -8.77493e-07
1.02497e-06 -6.62973e-09 3.35161e-08
1.00666e-06 -6.43233e-09 3.34205e-08
1.02149e-06 -5.71796e-09 2.58093e-08
-8.28453e-08 1.49699e-05 -9.85335e-07
9.85606e-07 -6.25396e-09 3.29517e-08
1.05072e-06 -2.8021e-09 2.03329e-08
1.0638e-06 -2.33723e-09 1.74307e-08
1.03665e-06 -3.39731e-09 2.03449e-08
1.02049e-06 -4.20002e-09 1.65655e-08
-2.41217e-08 8.67251e-06 -5.96981e-07
-2.18938e-08 7.51682e-06 -5.18755e-07
-2.56186e-08 9.94572e-06 -6.8158e-07
1.05416e-06 -3.50145e-09 2.02478e-08
1.06832e-06 -2.87843e-09 2.0748e-08
1.08143e-06 -2.40705e-09 1.78533e-08
1.03803e-06 -4.32928e-09 1.64904e-08
-2.23213e-08 8.66341e-06 -6.00648e-07
-2.06521e-08 7.5088e-06 -5.21935e-07
-2.41125e-08 9.93531e-06 -6.87358e-07
1.07624e-06 -3.5865e-09 2.07353e-08
1.09061e-06 -2.94687e-09 2.15743e-08
1.10379e-06 -2.45519e-09 1.8779e-08
1.0602e-06 -4.45479e-09 1.70967e-08
1.14181e-06 -4.88684e-09 2.05274e-08
1.12206e-06 -4.78912e-09 1.94784e-08
1.09863e-06 -4.65566e-09 1.88963e-08
-2.08199e-08 8.65448e-06 -6.0013e-07
-1.98814e-08 7.50093e-06 -5.21667e-07
-2.31969e-08 9.92513e-06 -6.88244e-07
1.07971e-06 -4.55565e-09 1.80568e-08
1.09649e-06 -3.69042e-09 2.10378e-08
1.11122e-06 -3.04086e-09 2.18085e-08
1.12465e-06 -2.54745e-09 1.8713e-08
-1.61225e-08 8.64502e-06 -5.9826e-07
-1.64233e-08 7.49256e-06 -5.21744e-07
-1.88157e-08 9.9038e-06 -6.86525e-07
1.13158e-06 -3.12211e-09 2.19957e-08
1.14511e-06 -2.607e-09 1.92186e-08
-1.62466e-08 8.63543e-06 -5.99095e-07
-1.68328e-08 7.48417e-06 -5.21545e-07
1.14087e-06 -3.92757e-09 2.14833e-08
1.15562e-06 -3.22833e-09 2.23202e-08
1.16929e-06 -2.69378e-09 1.97002e-08
-1.54746e-08 8.62567e-06 -6.02739e-07
-1.58314e-08 7.47565e-06 -5.24292e-07
1.17717e-06 -3.30889e-09 2.27653e-08
1.19114e-06 -2.74528e-09 2.04984e-08
1.16184e-06 -4.04462e-09 2.19353e-08
-1.53846e-08 9.89222e-06 -6.92518e-07
1.11665e-06 -3.79509e-09 2.15055e-08
-1.7111e-08 9.91428e-06 -6.8719e-07
-2.81397e-08 1.13291e-05 -7.91806e-07
-7.1011e-08 1.48937e-05 -9.99771e-07
-3.85753e-08 1.30062e-05 -8.89401e-07
1.10736e-06 -7.47485e-09 3.62283e-08
1.12657e-06 -6.53855e-09 2.76252e-08
1.14521e-06 -5.69801e-09 2.4304e-08
-3.94804e-08 1.29916e-05 -8.93835e-07
-2.99861e-08 1.13164e-05 -7.91666e-07
-7.15413e-08 1.48777e-05 -1.00001e-06
1.12662e-06 -7.66082e-09 3.62992e-08
1.16589e-06 -5.83577e-09 2.48087e-08
1.14676e-06 -6.73609e-09 2.77284e-08
-3.03797e-08 1.13032e-05 -7.91837e-07
-7.04504e-08 1.48614e-05 -1.00036e-06
-4.12786e-08 1.29771e-05 -8.98301e-07
1.14596e-06 -7.87951e-09 3.63925e-08
1.16781e-06 -6.90222e-09 2.82906e-08
1.1864e-06 -5.98097e-09 2.53967e-08
1.1702e-06 -8.08355e-09 3.69135e-08
1.19756e-06 -8.39669e-09 3.71378e-08
1.21844e-06 -8.59029e-09 3.79294e-08
-4.05369e-08 1.29624e-05 -8.95197e-07
-3.04388e-08 1.12906e-05 -7.85177e-07
-7.39143e-08 1.48448e-05 -9.99757e-07
1.21158e-06 -6.11532e-09 2.55376e-08
1.19246e-06 -7.09105e-09 2.82234e-08
-6.97144e-08 1.48276e-05 -1.0042e-06
-4.19625e-08 1.29467e-05 -8.95079e-07
-3.13524e-08 1.12768e-05 -7.87497e-07
1.23908e-06 -6.33152e-09 2.51037e-08
1.21994e-06 -7.35025e-09 2.73376e-08
-7.15085e-08 1.48103e-05 -1.00331e-06
-2.98182e-08 1.12628e-05 -7.78958e-07
-4.26073e-08 1.29312e-05 -8.90091e-07
1.26145e-06 -6.43601e-09 2.48956e-08
1.24205e-06 -7.50745e-09 2.69545e-08
-7.51269e-08 1.4793e-05 -1.00079e-06
-4.37429e-08 1.29155e-05 -8.83276e-07
-3.3563e-08 1.12489e-05 -7.79996e-07
-1.3507e-08 9.88167e-06 -6.9519e-07
-1.25076e-08 8.61592e-06 -6.05966e-07
-1.33865e-08 7.46713e-06 -5.25776e-07
1.1652e-06 -5.02209e-09 2.13394e-08
1.18601e-06 -4.16452e-09 2.23347e-08
1.20112e-06 -3.41511e-09 2.32142e-08
1.21528e-06 -2.84276e-09 2.09559e-08
-1.1006e-08 8.60608e-06 -6.06395e-07
-1.28649e-08 7.4585e-06 -5.26116e-07
-1.3752e-08 9.87059e-06 -6.97751e-07
1.18618e-06 -5.12209e-09 2.21613e-08
1.23785e-06 -2.91934e-09 2.13079e-08
1.20758e-06 -4.31139e-09 2.25879e-08
1.22293e-06 -3.54565e-09 2.31811e-08
-1.25037e-08 9.85893e-06 -6.96348e-07
-1.26144e-08 8.59574e-06 -6.05465e-07
-1.45965e-08 7.44944e-06 -5.25272e-07
1.20717e-06 -5.22887e-09 2.34142e-08
1.23254e-06 -5.34078e-09 2.37716e-08
1.26036e-06 -5.5373e-09 2.33296e-08
1.28334e-06 -5.63595e-09 2.35415e-08
1.22956e-06 -4.42034e-09 2.29802e-08
1.24512e-06 -3.62985e-09 2.3758e-08
1.26015e-06 -3.03385e-09 2.17881e-08
-1.16281e-08 9.8471e-06 -6.94891e-07
-9.50892e-09 8.58563e-06 -6.03073e-07
-1.27252e-08 7.44053e-06 -5.23267e-07
1.28665e-06 -3.10514e-09 2.21835e-08
1.25547e-06 -4.58484e-09 2.30437e-08
1.27102e-06 -3.75053e-09 2.36863e-08
-1.52732e-08 9.83499e-06 -6.99902e-07
-1.24431e-08 8.57499e-06 -6.05947e-07
-1.43908e-08 7.43131e-06 -5.23911e-07
1.2847e-06 -4.76449e-09 2.23861e-08
1.30036e-06 -3.86715e-09 2.33968e-08
1.31638e-06 -3.25144e-09 2.22343e-08
-1.49172e-08 9.82248e-06 -6.95392e-07
-1.37573e-08 7.42189e-06 -5.20208e-07
-1.32868e-08 8.56413e-06 -6.03306e-07
1.34108e-06 -3.32775e-09 2.25797e-08
1.30793e-06 -4.92723e-09 2.21619e-08
1.32398e-06 -3.98661e-09 2.31331e-08
-1.875e-08 9.80994e-06 -6.93499e-07
-1.54581e-08 8.55303e-06 -6.04854e-07
-1.66221e-08 7.4122e-06 -5.20565e-07
1.07289e-06 -1.72521e-09 1.38452e-08
1.08252e-06 -1.39596e-09 1.23715e-08
1.09137e-06 -1.26146e-09 9.2939e-09
-6.30281e-09 6.42313e-06 -4.44257e-07
-5.3067e-09 4.2852e-06 -3.01417e-07
-2.08645e-09 5.35236e-06 -3.74574e-07
1.09114e-06 -1.78266e-09 1.34052e-08
1.10073e-06 -1.43815e-09 1.20676e-08
1.10967e-06 -1.28987e-09 9.31262e-09
-5.90831e-09 6.41621e-06 -4.45895e-07
-1.1875e-09 5.34661e-06 -3.75732e-07
-4.59155e-09 4.28058e-06 -3.02039e-07
1.11373e-06 -1.82433e-09 1.36642e-08
1.12338e-06 -1.47566e-09 1.21505e-08
1.13254e-06 -1.33516e-09 9.60323e-09
-5.28306e-09 6.40944e-06 -4.45329e-07
-2.80934e-10 5.34096e-06 -3.7541e-07
-3.99251e-09 4.27605e-06 -3.01125e-07
1.14534e-06 -1.51982e-09 1.19467e-08
1.13507e-06 -1.87448e-09 1.36259e-08
1.15442e-06 -1.38188e-09 9.67785e-09
1.17573e-06 -1.41693e-09 9.73333e-09
-3.67413e-09 6.40215e-06 -4.4678e-07
1.07533e-09 5.33488e-06 -3.75009e-07
-2.89223e-09 4.27118e-06 -3.00766e-07
-5.25542e-09 6.39508e-06 -4.4824e-07
8.94711e-10 5.32908e-06 -3.74463e-07
-3.35257e-09 4.2665e-06 -3.01183e-07
1.15618e-06 -1.92904e-09 1.3189e-08
1.16612e-06 -1.56356e-09 1.19007e-08
1.18063e-06 -1.98235e-09 1.29901e-08
1.19065e-06 -1.60953e-09 1.18081e-08
1.20044e-06 -1.45443e-09 9.67568e-09
-4.2052e-09 6.38748e-06 -4.50675e-07
2.1079e-09 5.32276e-06 -3.7467e-07
-2.72938e-09 4.26143e-06 -3.01674e-07
1.20315e-06 -2.03503e-09 1.28576e-08
1.21334e-06 -1.65469e-09 1.17665e-08
1.22329e-06 -1.48521e-09 9.69505e-09
1.09701e-06 -5.36031e-10 1.06592e-08
1.10095e-06 -2.69897e-10 8.52432e-09
1.10205e-06 -1.95078e-10 -2.4643e-09
-1.95156e-09 3.21582e-06 -2.27184e-07
-1.92212e-09 2.14421e-06 -1.51134e-07
-5.12663e-10 1.07203e-06 -7.55707e-08
1.11535e-06 -5.56641e-10 1.06177e-08
1.11928e-06 -2.7874e-10 8.5586e-09
1.12007e-06 -2.10929e-10 -2.59172e-09
-1.81087e-09 3.21233e-06 -2.27555e-07
-1.6701e-09 2.14189e-06 -1.51307e-07
-4.89477e-10 1.07087e-06 -7.56443e-08
1.13828e-06 -5.79867e-10 1.08115e-08
1.14227e-06 -2.97394e-10 8.79752e-09
1.14332e-06 -2.00794e-10 -2.52171e-09
-1.765e-09 3.2089e-06 -2.27266e-07
-1.56955e-09 2.1396e-06 -1.51141e-07
-5.06335e-10 1.06973e-06 -7.55459e-08
1.16067e-06 -6.03907e-10 1.09048e-08
1.16446e-06 -3.18646e-10 8.95456e-09
1.16554e-06 -2.14103e-10 -2.55089e-09
1.18166e-06 -6.25423e-10 1.10494e-08
1.18578e-06 -3.14649e-10 9.1641e-09
1.18681e-06 -1.83516e-10 -2.29656e-09
-1.24385e-09 3.20521e-06 -2.27364e-07
-1.32558e-09 2.13715e-06 -1.50943e-07
-4.77198e-10 1.0685e-06 -7.54201e-08
-1.956e-09 3.20167e-06 -2.27923e-07
-1.53947e-09 2.1348e-06 -1.51128e-07
-6.55832e-10 1.06732e-06 -7.55161e-08
1.20646e-06 -6.33895e-10 1.12803e-08
1.21061e-06 -3.18402e-10 9.37207e-09
1.21164e-06 -1.81473e-10 -2.31057e-09
-1.57796e-09 3.19783e-06 -2.28472e-07
-1.27351e-09 2.13224e-06 -1.51388e-07
-6.0118e-10 1.06604e-06 -7.56488e-08
1.22945e-06 -6.61849e-10 1.15223e-08
1.23366e-06 -3.27256e-10 9.64256e-09
1.23467e-06 -1.69513e-10 -2.12917e-09
-4.37393e-09 6.3804e-06 -4.52052e-07
2.80235e-09 5.31695e-06 -3.74076e-07
-2.49351e-09 4.25676e-06 -3.01408e-07
1.2273e-06 -2.08768e-09 1.2652e-08
1.23758e-06 -1.70357e-09 1.15837e-08
1.24766e-06 -1.53746e-09 9.45155e-09
-2.99062e-09 6.37262e-06 -4.53732e-07
4.05634e-09 5.31047e-06 -3.75803e-07
-1.84363e-09 4.25154e-06 -3.01937e-07
1.25039e-06 -2.16812e-09 1.18779e-08
1.26104e-06 -1.76872e-09 1.11199e-08
1.27141e-06 -1.56797e-09 9.31216e-09
-1.88625e-09 4.24632e-06 -3.01959e-07
-3.63536e-09 6.3648e-06 -4.53574e-07
3.59941e-09 5.30397e-06 -3.75856e-07
1.27263e-06 -2.23046e-09 1.19106e-08
1.28346e-06 -1.80738e-09 1.10957e-08
1.29418e-06 -1.61872e-09 9.49914e-09
-2.47173e-09 6.3571e-06 -4.50628e-07
4.75703e-09 5.29751e-06 -3.74568e-07
-1.73347e-09 4.2411e-06 -3.01566e-07
1.29998e-06 -2.32385e-09 1.16497e-08
1.31099e-06 -1.88073e-09 1.09679e-08
1.32184e-06 -1.67084e-09 9.41798e-09
-3.51255e-09 6.34914e-06 -4.50617e-07
-1.72153e-09 4.23573e-06 -3.01576e-07
4.54347e-09 5.29085e-06 -3.75245e-07
1.32975e-06 -2.42116e-09 1.13153e-08
1.3411e-06 -1.96292e-09 1.08779e-08
1.35216e-06 -1.7208e-09 9.48024e-09
-3.1358e-09 6.34095e-06 -4.47986e-07
4.91317e-09 5.28399e-06 -3.73927e-07
-1.76974e-09 4.23022e-06 -3.00884e-07
1.36658e-06 -2.00619e-09 1.09301e-08
1.37794e-06 -1.74836e-09 9.68773e-09
1.35422e-06 -2.49271e-09 1.12909e-08
-5.51262e-09 6.33258e-06 -4.4724e-07
4.11302e-09 5.277e-06 -3.73828e-07
-2.33082e-09 4.2246e-06 -3.00683e-07
-1.28837e-09 2.12987e-06 -1.51257e-07
-1.27822e-09 3.19411e-06 -2.2867e-07
-6.05514e-10 1.0648e-06 -7.56874e-08
1.25385e-06 -6.77564e-10 1.16691e-08
1.2581e-06 -3.40464e-10 9.68251e-09
1.25912e-06 -1.79752e-10 -2.38695e-09
-1.28479e-09 3.19033e-06 -2.28588e-07
-1.02685e-09 2.12724e-06 -1.51249e-07
-6.57706e-10 1.06353e-06 -7.55953e-08
1.2778e-06 -6.9682e-10 1.18704e-08
1.28218e-06 -3.51331e-10 9.78062e-09
1.28326e-06 -1.75839e-10 -2.30037e-09
-1.06365e-09 2.12461e-06 -1.51437e-07
-1.62565e-09 3.18641e-06 -2.28626e-07
-7.67693e-10 1.06222e-06 -7.56905e-08
1.30071e-06 -7.32116e-10 1.19024e-08
1.30526e-06 -3.73976e-10 1.0076e-08
1.3064e-06 -1.84107e-10 -2.26165e-09
-1.35054e-09 3.18245e-06 -2.28246e-07
-1.14545e-09 2.12197e-06 -1.50945e-07
-8.53281e-10 1.06089e-06 -7.53792e-08
1.32852e-06 -7.36997e-10 1.23411e-08
1.3331e-06 -3.73836e-10 1.03156e-08
1.33421e-06 -1.75267e-10 -2.19056e-09
-1.61247e-09 3.17841e-06 -2.2836e-07
-1.10717e-09 2.11926e-06 -1.51042e-07
-9.49828e-10 1.05953e-06 -7.54756e-08
1.3591e-06 -7.73745e-10 1.27041e-08
1.36382e-06 -4.03718e-10 1.05287e-08
1.36499e-06 -1.88788e-10 -1.99941e-09
-1.58773e-09 3.17425e-06 -2.27371e-07
-1.30739e-09 2.11648e-06 -1.50693e-07
-1.05912e-09 1.05813e-06 -7.52194e-08
1.38516e-06 -7.88102e-10 1.30066e-08
1.39001e-06 -4.05916e-10 1.08843e-08
1.39065e-06 -1.92912e-10 -1.85296e-09
-2.05372e-09 3.17001e-06 -2.27257e-07
-1.56956e-09 2.11363e-06 -1.50703e-07
-1.23984e-09 1.05671e-06 -7.52042e-08
-2.38007e-09 -2.14635e-06 1.50963e-07
-6.58892e-09 -4.28968e-06 3.01268e-07
1.07968e-06 1.70559e-10 1.96572e-09
1.07864e-06 2.46628e-10 -9.03959e-09
1.07471e-06 5.10679e-10 -1.05545e-08
1.08528e-15 1.11679e-10 -7.86695e-12
-5.57194e-10 -1.07295e-06 7.55255e-08
-2.09415e-09 -3.21901e-06 2.27319e-07
1.06922e-06 1.22185e-09 -9.41768e-09
1.06058e-06 1.33599e-09 -1.26834e-08
1.05107e-06 1.65433e-09 -1.41326e-08
-3.2753e-09 -5.35776e-06 3.75301e-07
-7.88628e-09 -6.42962e-06 4.44212e-07
-1.78623e-14 1.11965e-10 -7.87425e-12
-4.17072e-10 -1.07404e-06 7.55211e-08
-2.01997e-09 -2.14845e-06 1.51096e-07
-1.56588e-09 -3.22226e-06 2.27518e-07
-6.19441e-09 -4.29383e-06 3.01644e-07
-2.73643e-09 -5.36311e-06 3.75039e-07
-6.1886e-09 -6.43609e-06 4.43502e-07
1.04257e-06 2.26714e-09 -1.72185e-08
-3.85671e-14 1.12281e-10 -7.86323e-12