# vtk DataFile Version 3.0
vtk output
ASCII
DATASET POLYDATA
POINTS 6161 float
0.189637 0.309904 -0.0170506
0.189647 0.299823 -0.0166594
0.199693 0.304792 -0.0166918
0.209737 0.309776 -0.0167629
0.229821 0.309718 -0.0165558
0.249942 0.30979 -0.0166136
0.329983 0.309655 -0.0165029
0.369904 0.309601 -0.0165051
0.390079 0.30967 -0.016516
0.450046 0.309608 -0.0164529
0.470026 0.309603 -0.0164492
0.490007 0.309591 -0.0164872
0.169626 0.30984 -0.0162924
0.209746 0.299741 -0.0162898
0.219786 0.304703 -0.0164107
0.239864 0.304637 -0.0162762
0.259949 0.304742 -0.016329
0.269947 0.309729 -0.0165002
0.289925 0.309688 -0.0164183
0.309882 0.309644 -0.0164088
0.319993 0.304617 -0.0163218
0.339965 0.304594 -0.0162684
0.359923 0.304566 -0.016268
0.349946 0.309585 -0.0165022
0.380088 0.304624 -0.0163513
0.400061 0.304608 -0.0162567
0.420035 0.304586 -0.0162031
0.410048 0.309606 -0.0164677
0.430023 0.309581 -0.0164321
0.440048 0.304551 -0.0162637
0.460025 0.30455 -0.0162387
0.480004 0.304543 -0.0162584
0.159585 0.304844 -0.0160066
0.179688 0.30477 -0.0160702
0.149531 0.309882 -0.0161268
0.189664 0.289795 -0.0161241
0.199708 0.294755 -0.0162087
0.229833 0.29965 -0.0160747
0.24995 0.299715 -0.0161405
0.269947 0.299704 -0.0160209
0.289922 0.299659 -0.0159343
0.309875 0.299611 -0.0159248
0.27994 0.304671 -0.0162288
0.299904 0.304624 -0.0161815
0.329978 0.299586 -0.0160581
0.349941 0.299561 -0.0160274
0.36989 0.299531 -0.0160509
0.390068 0.299594 -0.0160654
0.41004 0.299573 -0.0159942
0.430015 0.299548 -0.0159648
0.450026 0.299525 -0.0160236
0.470003 0.299523 -0.0160225
0.489982 0.299514 -0.0160674
0.810363 0.309904 -0.0170499
0.509992 0.309587 -0.0164933
0.529974 0.309599 -0.0164556
0.549954 0.309605 -0.0164605
0.609922 0.309668 -0.0165213
0.630096 0.309601 -0.0165054
0.670017 0.309656 -0.0165032
0.750058 0.309791 -0.0166137
0.810353 0.299823 -0.0166581
0.800306 0.304792 -0.0166911
0.770179 0.309717 -0.0165556
0.790263 0.309776 -0.0167624
0.500015 0.304527 -0.016329
0.519996 0.30454 -0.0162649
0.539975 0.304547 -0.0162459
0.559953 0.304548 -0.0162725
0.579965 0.304584 -0.0162087
0.59994 0.304606 -0.0162622
0.619914 0.304623 -0.0163571
0.569978 0.309578 -0.0164376
0.589953 0.309603 -0.0164729
0.640077 0.304566 -0.0162687
0.660035 0.304594 -0.0162692
0.680007 0.304618 -0.0163224
0.650054 0.309586 -0.0165027
0.720062 0.304702 -0.0162071
0.740051 0.304742 -0.0163293
0.690118 0.309644 -0.0164096
0.710075 0.309689 -0.0164189
0.730053 0.30973 -0.0165006
0.790254 0.299741 -0.0162889
0.760136 0.304637 -0.0162762
0.780214 0.304702 -0.0164103
0.830374 0.309839 -0.0162925
0.510017 0.299514 -0.0160735
0.529997 0.299521 -0.0160289
0.549974 0.299524 -0.0160313
0.569986 0.299546 -0.0159716
0.589961 0.299572 -0.0160008
0.609934 0.299592 -0.0160724
0.630111 0.29953 -0.0160537
0.650059 0.29956 -0.0160302
0.670022 0.299585 -0.0160608
0.690125 0.29961 -0.0159262
0.710078 0.299658 -0.0159356
0.730053 0.299703 -0.0160222
0.700096 0.304625 -0.0161825
0.75005 0.299715 -0.0161417
0.810335 0.289795 -0.0161235
0.800292 0.294755 -0.0162081
0.770167 0.299649 -0.0160741
0.820312 0.304769 -0.01607
0.840415 0.304844 -0.0160063
0.850469 0.309881 -0.0161268
0.119246 0.425475 -0.0213099
0.119195 0.43558 -0.022115
0.109204 0.430522 -0.0208893
0.0991775 0.435567 -0.0203298
0.109258 0.420465 -0.0201026
0.119303 0.415442 -0.0205063
0.0992439 0.425494 -0.0195884
0.0892607 0.430541 -0.0187835
0.119312 0.405404 -0.0198021
0.109303 0.41045 -0.0193658
0.0992938 0.415494 -0.0187875
0.0792958 0.43559 -0.0178166
0.11932 0.39537 -0.0191792
0.109309 0.400424 -0.0187112
0.0893178 0.420546 -0.0180346
0.119317 0.385325 -0.0186047
0.0993349 0.405508 -0.0180968
0.109325 0.390397 -0.0181189
0.0793648 0.425628 -0.0171249
0.119315 0.375282 -0.0180561
0.0893748 0.410575 -0.017287
0.0993551 0.395491 -0.0174663
0.109336 0.380315 -0.0175492
0.119335 0.365138 -0.0174902
0.109339 0.370181 -0.017012
0.0993675 0.385323 -0.0168612
0.0894196 0.400426 -0.0165406
0.119376 0.355012 -0.01689
0.0794368 0.415506 -0.0162535
0.109365 0.360062 -0.0164977
0.0993777 0.375204 -0.0163579
0.119411 0.344969 -0.0163169
0.0694168 0.430526 -0.0159315
0.0894325 0.390322 -0.0159942
0.109415 0.350022 -0.0159377
0.0993962 0.365123 -0.0159117
0.159558 0.314902 -0.0164904
0.179664 0.314839 -0.0165841
0.13946 0.314929 -0.0161775
0.169597 0.319921 -0.0168232
0.149489 0.319943 -0.0166343
0.179646 0.324938 -0.0171335
0.159533 0.324954 -0.0170428
0.16958 0.330035 -0.0173832
0.149459 0.33004 -0.017165
0.17964 0.33508 -0.0177137
0.159516 0.335074 -0.0175926
0.169572 0.340196 -0.0179776
0.14944 0.340185 -0.0177191
0.159502 0.345303 -0.0181875
0.179641 0.345246 -0.0183386
0.16957 0.350376 -0.0186244
0.149426 0.350357 -0.0183253
0.159497 0.355387 -0.0188155
0.179648 0.355311 -0.0189576
0.139344 0.355469 -0.0183877
0.14941 0.360424 -0.0189569
0.169572 0.360343 -0.019219
0.179655 0.365307 -0.019493
0.159499 0.365407 -0.0193868
0.139335 0.365495 -0.0189779
0.149422 0.37045 -0.0195037
0.169593 0.370381 -0.0197341
0.179677 0.375354 -0.0199913
0.159515 0.375448 -0.0199197
0.13934 0.37553 -0.0195378
0.129252 0.370558 -0.0189405
0.129253 0.360536 -0.0183699
0.129281 0.350327 -0.0177448
0.139366 0.345219 -0.0177857
0.139389 0.335076 -0.0172401
0.129333 0.340169 -0.0171622
0.13942 0.324972 -0.0167209
0.129369 0.330044 -0.0166369
0.129389 0.319961 -0.0161666
0.199675 0.31489 -0.0171845
0.219777 0.31479 -0.0169086
0.239856 0.314729 -0.016783
0.189597 0.319987 -0.0176714
0.209722 0.319889 -0.0173067
0.229817 0.319833 -0.0170861
0.249938 0.319919 -0.0170795
0.199653 0.325046 -0.0177625
0.219773 0.324924 -0.0174636
0.239857 0.324864 -0.0173299
0.189564 0.330176 -0.0182908
0.209713 0.330057 -0.0179012
0.229821 0.329998 -0.0176748
0.249939 0.330109 -0.017579
0.199636 0.335265 -0.0184154
0.219774 0.335116 -0.0180886
0.239864 0.335051 -0.017951
0.189534 0.340431 -0.0189913
0.209708 0.340368 -0.0186018
0.229829 0.340214 -0.0183437
0.249945 0.340374 -0.0181417
0.199624 0.345405 -0.0191156
0.219781 0.345353 -0.0187986
0.239876 0.345277 -0.018657
0.18951 0.350444 -0.0196818
0.209708 0.350389 -0.0192719
0.229839 0.350307 -0.0190243
0.199616 0.355432 -0.0197999
0.219789 0.355337 -0.0194395
0.239889 0.355243 -0.0192614
0.18949 0.360476 -0.0203878
0.209714 0.360402 -0.0199342
0.229856 0.360298 -0.019644
0.249941 0.36051 -0.0193793
0.19962 0.365431 -0.0204387
0.219811 0.365334 -0.0200254
0.239916 0.36524 -0.0197942
0.189492 0.370441 -0.021008
0.209739 0.370377 -0.0205029
0.229893 0.370283 -0.0201481
0.199636 0.375426 -0.0210208
0.219844 0.375333 -0.0205501
0.239957 0.375272 -0.0202623
0.249957 0.370533 -0.0199131
0.249943 0.350541 -0.0188002
0.149422 0.380485 -0.0200679
0.169603 0.380424 -0.0202667
0.129239 0.380562 -0.0195121
0.179686 0.385407 -0.0205095
0.159516 0.385495 -0.0204676
0.139331 0.385574 -0.0201003
0.169604 0.390454 -0.0208137
0.14942 0.390538 -0.0206293
0.129228 0.390612 -0.0200697
0.179693 0.39547 -0.0211044
0.139316 0.395603 -0.0207082
0.159515 0.395555 -0.0210821
0.1696 0.400522 -0.0214814
0.149406 0.400606 -0.0213022
0.129204 0.400685 -0.0207285
0.159491 0.405605 -0.0218135
0.179686 0.405542 -0.0218391
0.139286 0.405684 -0.0214396
0.149369 0.410679 -0.0221096
0.16958 0.41062 -0.0223019
0.129156 0.410751 -0.0214994
0.15945 0.415698 -0.0227197
0.179655 0.415641 -0.0227494
0.139232 0.415773 -0.0223297
0.149309 0.420784 -0.023113
0.169529 0.420729 -0.0233359
0.129086 0.420852 -0.0224639
0.159376 0.425828 -0.0238742
0.179592 0.425774 -0.0239364
0.139148 0.425885 -0.0234347
0.14924 0.430867 -0.0241149
0.169469 0.430835 -0.0243595
0.129004 0.430904 -0.0234607
0.139087 0.435927 -0.0243083
0.159327 0.435919 -0.0247621
0.179548 0.435895 -0.0248324
0.189485 0.380439 -0.0215908
0.209758 0.38038 -0.0210476
0.229928 0.380319 -0.02065
0.249961 0.38058 -0.0205167
0.199638 0.385449 -0.0215776
0.219869 0.385388 -0.0210786
0.239989 0.385305 -0.020721
0.189474 0.390519 -0.0222027
0.209772 0.390423 -0.0215952
0.229957 0.390364 -0.021151
0.249958 0.390668 -0.0210473
0.199638 0.39551 -0.0221954
0.21989 0.395446 -0.0216568
0.24002 0.395366 -0.021243
0.189458 0.400573 -0.0228507
0.20978 0.400492 -0.0222589
0.229981 0.400428 -0.0217714
0.199632 0.405609 -0.0229383
0.219902 0.40551 -0.0223436
0.240043 0.40544 -0.0219185
0.189433 0.410686 -0.0236837
0.20978 0.410593 -0.0230749
0.229993 0.410503 -0.0225193
0.249959 0.410822 -0.0222364
0.199608 0.415701 -0.0238655
0.219898 0.4156 -0.0232877
0.240049 0.41552 -0.0227583
0.189385 0.420823 -0.0247368
0.209753 0.420694 -0.0241484
0.22998 0.420596 -0.0235634
0.199555 0.425841 -0.0251104
0.219861 0.425718 -0.0245088
0.240022 0.425618 -0.0239986
0.189327 0.430948 -0.0259184
0.209717 0.430823 -0.025261
0.229956 0.430736 -0.0246697
0.199522 0.435958 -0.0261217
0.219844 0.435861 -0.0254742
0.240009 0.4358 -0.0249148
0.249935 0.431028 -0.0242512
0.249953 0.420943 -0.0230701
0.249965 0.400761 -0.0216423
0.05936 0.475752 -0.0163777
0.0592244 0.485738 -0.0169832
0.0590706 0.495897 -0.0177192
0.0492941 0.500701 -0.0158572
0.0595213 0.465724 -0.0156755
0.109125 0.440618 -0.0217168
0.0891735 0.440604 -0.0195327
0.0693513 0.440683 -0.0166658
0.119113 0.445715 -0.0229679
0.0990746 0.445644 -0.0211326
0.0791995 0.445614 -0.0185396
0.109038 0.450769 -0.0225346
0.0890664 0.450663 -0.0202959
0.0692613 0.450638 -0.0172846
0.119037 0.455913 -0.0237943
0.0989906 0.45578 -0.0219066
0.0791081 0.455672 -0.019235
0.108965 0.460964 -0.0232673
0.0889818 0.460765 -0.0209694
0.069195 0.460677 -0.0178177
0.118959 0.466178 -0.0245913
0.0989121 0.465964 -0.0225768
0.0790142 0.465757 -0.0198169
0.108877 0.471202 -0.0240943
0.0888893 0.470959 -0.0216737
0.0690968 0.470765 -0.0184321
0.118866 0.47628 -0.0254922
0.0988205 0.476203 -0.0233759
0.0789092 0.475924 -0.0205237
0.108784 0.4813 -0.0249341
0.0888084 0.481198 -0.0223726
0.0690092 0.480927 -0.0190016
0.11877 0.4864 -0.0264061
0.0987255 0.486302 -0.0241736
0.0788304 0.486166 -0.0211238
0.108685 0.491435 -0.0258293
0.0887197 0.491299 -0.0230988
0.0689191 0.491123 -0.0195505
0.118683 0.496562 -0.0272797
[...]
POINT_DATA 6161
VECTORS alpha float
5.80111e-06 -1.26549e-08 1.22072e-07
5.96549e-06 -1.42196e-08 1.47981e-07
-1.08503e-09 1.51169e-05 -9.72868e-07
6.2291e-06 -1.73258e-08 9.33088e-08
6.65548e-06 -2.06077e-08 3.99822e-08
7.04725e-06 -1.19725e-08 6.79537e-08
8.29439e-06 -9.37333e-09 2.08279e-08
8.66105e-06 -1.39278e-08 -2.10769e-08
8.8089e-06 -6.39335e-09 4.21929e-08
9.05623e-06 -1.05906e-09 1.15151e-08
9.09468e-06 -4.06148e-09 -7.76853e-09
9.1141e-06 -7.07385e-09 -2.68385e-08
5.38615e-06 -1.80652e-08 -1.99118e-08
6.38695e-06 -1.8252e-08 1.05826e-07
1.0107e-08 1.41702e-05 -9.10046e-07
1.84501e-08 1.27404e-05 -8.19234e-07
1.14434e-08 1.1181e-05 -7.55878e-07
7.4154e-06 -1.43725e-08 4.56934e-08
7.74607e-06 -1.65546e-08 1.80317e-08
8.03275e-06 -1.86488e-08 -9.26039e-09
9.11604e-09 7.24256e-06 -4.88953e-07
6.77045e-09 6.27883e-06 -4.21935e-07
4.84277e-09 5.4173e-06 -3.62475e-07
8.49544e-06 -1.26402e-08 -1.41797e-10
3.6064e-09 4.61646e-06 -3.15444e-07
1.74092e-09 3.83437e-06 -2.61336e-07
3.83785e-10 3.06044e-06 -2.08205e-07
8.91484e-06 -9.85423e-09 2.50076e-08
8.99671e-06 -1.26958e-08 7.38188e-09
1.26039e-09 2.28971e-06 -1.55057e-07
3.66646e-10 1.52314e-06 -1.0288e-07
-5.37935e-11 7.60407e-07 -5.12823e-08
-3.82587e-09 1.42899e-05 -9.09098e-07
1.24394e-08 1.5185e-05 -9.74995e-07
5.0095e-06 -1.47919e-08 -7.82751e-08
5.97671e-06 -1.43871e-08 1.66263e-07
-1.52946e-09 1.53079e-05 -9.88976e-07
6.79737e-06 -2.27586e-08 5.21288e-08
7.1655e-06 -1.60768e-08 7.0341e-08
7.49996e-06 -1.61606e-08 4.89262e-08
7.7971e-06 -1.81309e-08 1.90511e-08
8.05058e-06 -1.99608e-08 -1.0208e-08
1.12188e-08 9.67202e-06 -6.51978e-07
1.01565e-08 8.35338e-06 -5.61798e-07
8.28267e-06 -9.63894e-09 2.50297e-08
8.45889e-06 -1.17558e-08 1.95109e-09
8.60148e-06 -1.3845e-08 -2.11939e-08
8.73449e-06 -7.93319e-09 4.10025e-08
8.83019e-06 -1.02322e-08 2.24378e-08
8.90414e-06 -1.25097e-08 4.0976e-09
8.95761e-06 -3.33628e-11 1.12017e-08
8.99332e-06 -2.45039e-09 -9.81943e-09
9.01152e-06 -4.87258e-09 -3.06572e-08
5.80115e-06 1.27325e-08 -1.21995e-07
9.11415e-06 6.93395e-09 2.69059e-08
9.09459e-06 3.99307e-09 7.43e-09
9.05605e-06 1.06224e-09 -1.22797e-08
8.80876e-06 6.63269e-09 -4.231e-08
8.66076e-06 1.39984e-08 2.10161e-08
8.29425e-06 9.44347e-09 -2.07563e-08
7.04726e-06 1.20602e-08 -6.78405e-08
5.96533e-06 1.43297e-08 -1.47856e-07
-1.05503e-09 -1.5117e-05 9.72595e-07
6.65551e-06 2.06776e-08 -3.98844e-08
6.22914e-06 1.74002e-08 -9.32214e-08
1.14647e-13 3.02182e-10 -2.03493e-11
-5.38338e-11 -7.598e-07 5.11936e-08
3.59733e-10 -1.52259e-06 1.02761e-07
1.23974e-09 -2.28924e-06 1.54929e-07
3.82416e-10 -3.06006e-06 2.08111e-07
1.71613e-09 -3.83407e-06 2.61261e-07
3.54827e-09 -4.61622e-06 3.15406e-07
8.99644e-06 1.28091e-08 -7.16066e-09
8.9146e-06 1.00317e-08 -2.49561e-08
4.83141e-09 -5.41726e-06 3.62604e-07
6.75936e-09 -6.27879e-06 4.2205e-07
9.10631e-09 -7.2425e-06 4.89037e-07
8.49522e-06 1.27108e-08 1.47747e-10
1.04275e-08 -9.67676e-06 6.52738e-07
1.14389e-08 -1.11809e-05 7.55888e-07
8.03267e-06 1.87571e-08 9.31479e-09
7.74604e-06 1.66563e-08 -1.79539e-08
7.4154e-06 1.44673e-08 -4.55961e-08
6.38673e-06 1.83649e-08 -1.05697e-07
1.8445e-08 -1.27404e-05 8.19161e-07
1.01167e-08 -1.41702e-05 9.09871e-07
5.38621e-06 1.81046e-08 1.99442e-08
9.01155e-06 4.66016e-09 3.07169e-08
8.99321e-06 2.29038e-09 9.45097e-09
8.95739e-06 -7.41657e-11 -1.20155e-08
8.9038e-06 1.25316e-08 -3.87468e-09
8.82986e-06 1.02934e-08 -2.24593e-08
8.7342e-06 8.03234e-09 -4.12657e-08
8.60101e-06 1.38943e-08 2.12313e-08
8.45843e-06 1.17906e-08 -1.92697e-09
8.28224e-06 9.65907e-09 -2.50178e-08
8.05017e-06 2.00885e-08 1.02244e-08
7.79671e-06 1.82502e-08 -1.90271e-08
7.4996e-06 1.6271e-08 -4.88959e-08
1.01432e-08 -8.3533e-06 5.61855e-07
7.16517e-06 1.6178e-08 -7.03056e-08
5.97624e-06 1.44277e-08 -1.66174e-07
-1.50966e-09 -1.53079e-05 9.88794e-07
6.79709e-06 2.28739e-08 -5.20003e-08
1.24341e-08 -1.51851e-05 9.7469e-07
-3.81736e-09 -1.429e-05 9.08753e-07
5.00957e-06 1.48309e-08 7.82869e-08
2.2771e-08 1.09182e-05 -7.92393e-07
6.76812e-10 1.04423e-05 -8.25633e-07
1.3145e-05 1.72134e-10 -1.14087e-06
-6.47241e-09 1.07142e-05 -8.29594e-07
1.09537e-05 -1.49435e-08 -9.38748e-07
4.03931e-08 1.11775e-05 -7.30363e-07
8.09087e-09 1.13079e-05 -8.00958e-07
1.18632e-05 -6.57957e-09 -1.49519e-06
5.19727e-08 1.12766e-05 -6.83403e-07
9.00888e-06 -2.19305e-08 -7.65547e-07
2.60388e-08 1.16943e-05 -7.40894e-07
-4.35227e-08 1.57813e-05 -1.16184e-06
5.33689e-08 1.12656e-05 -6.43766e-07
7.38412e-06 -2.07745e-08 -6.20707e-07
1.01272e-05 -2.13083e-08 -1.25438e-06
5.28232e-08 1.11968e-05 -6.25076e-07
3.3951e-08 1.19054e-05 -6.90554e-07
6.1364e-06 -1.95685e-08 -5.06182e-07
-2.13743e-08 1.65011e-05 -1.14141e-06
4.75213e-08 1.11077e-05 -6.1953e-07
8.54342e-06 -1.59288e-08 -1.04082e-06
3.91521e-08 1.19915e-05 -6.40548e-07
5.23792e-06 -2.01082e-08 -4.19042e-07
3.58654e-08 1.1027e-05 -6.05576e-07
4.67182e-06 -2.3653e-08 -3.60866e-07
3.8554e-08 1.19909e-05 -5.85299e-07
7.17895e-06 -2.05947e-08 -8.42976e-07
2.39008e-08 1.09787e-05 -6.00521e-07
7.5774e-09 1.70349e-05 -9.91859e-07
4.35855e-06 -2.93335e-08 -3.23697e-07
2.94847e-08 1.19441e-05 -5.65081e-07
1.4307e-08 1.09746e-05 -6.01618e-07
1.03591e-05 -3.36978e-08 -1.684e-06
6.09417e-06 -2.51408e-08 -6.97965e-07
4.24449e-06 -2.73703e-08 -3.06946e-07
1.60273e-08 1.18828e-05 -5.71368e-07
4.49987e-09 1.4125e-05 -8.9277e-07
2.0329e-08 1.50004e-05 -9.54313e-07
-8.07397e-09 1.25276e-05 -7.80852e-07
5.17132e-06 -1.46988e-08 -2.3112e-08
4.83172e-06 -1.15903e-08 -8.04188e-08
3.2048e-08 1.48267e-05 -9.37111e-07
1.75774e-08 1.39732e-05 -8.79444e-07
4.84679e-06 -1.24925e-08 -2.60468e-08
4.57122e-06 -9.53198e-09 -8.10513e-08
4.0547e-08 1.46778e-05 -9.22074e-07
2.69011e-08 1.38554e-05 -8.66651e-07
4.51628e-06 -1.16664e-08 -2.91528e-08
4.32676e-06 -8.89734e-09 -8.23773e-08
3.12641e-08 1.37793e-05 -8.69586e-07
4.5702e-08 1.45623e-05 -9.10131e-07
4.43477e-06 -1.3692e-08 -3.26232e-08
4.32705e-06 -1.10152e-08 -8.77008e-08
3.55325e-08 1.37291e-05 -8.40624e-07
4.87269e-08 1.44794e-05 -8.67515e-07
2.28988e-08 1.22645e-05 -7.66777e-07
4.26631e-06 -1.57739e-08 -8.59552e-08
4.26403e-06 -1.86425e-08 -2.34027e-08
4.80344e-08 1.44578e-05 -8.04875e-07
3.76366e-08 1.3738e-05 -8.00466e-07
2.55788e-08 1.22977e-05 -7.38073e-07
4.43284e-06 -1.38411e-08 -8.33534e-08
4.31873e-06 -1.64394e-08 -1.6036e-08
4.60272e-08 1.45004e-05 -7.84931e-07
3.70218e-08 1.3807e-05 -7.81477e-07
2.6186e-08 1.2381e-05 -7.21941e-07
4.5718e-06 -1.10933e-08 -1.74448e-07
4.31511e-06 -1.24111e-08 -1.68199e-07
4.27696e-06 -8.08988e-09 -1.59442e-07
2.02932e-08 1.22766e-05 -7.57982e-07
1.31081e-08 1.23212e-05 -7.64551e-07
4.20125e-06 -6.73358e-09 -1.5195e-07
3.80635e-09 1.2406e-05 -7.74084e-07
4.35772e-06 -6.99028e-09 -1.51353e-07
4.54952e-06 -8.4742e-09 -1.49386e-07
2.09298e-09 1.49341e-05 -9.75165e-07
1.23166e-08 1.39841e-05 -9.09467e-07
1.96474e-08 1.25591e-05 -8.20089e-07
5.56755e-06 -1.27276e-08 1.30753e-07
5.97962e-06 -1.6139e-08 9.40069e-08
6.40236e-06 -1.88474e-08 4.2314e-08
6.80176e-06 -8.87379e-09 7.25832e-08
7.16921e-09 1.47528e-05 -9.87901e-07
1.67599e-08 1.37929e-05 -9.13438e-07
2.31143e-08 1.23674e-05 -8.21256e-07
5.19551e-06 -1.31686e-08 1.23871e-07
5.56628e-06 -1.59385e-08 8.93161e-08
5.96206e-06 -1.80692e-08 4.08354e-08
6.35125e-06 -7.68796e-09 7.04555e-08
1.13866e-08 1.45836e-05 -1.00611e-06
2.04677e-08 1.36075e-05 -9.20258e-07
2.57743e-08 1.2175e-05 -8.23961e-07
4.79108e-06 -1.48685e-08 1.1519e-07
5.09377e-06 -1.61063e-08 7.66122e-08
5.43694e-06 -1.83667e-08 3.802e-08
5.79149e-06 -7.94471e-09 6.44745e-08
1.59263e-08 1.44299e-05 -9.90347e-07
2.32967e-08 1.34388e-05 -9.29215e-07
2.75849e-08 1.19925e-05 -8.26726e-07
4.63034e-06 -1.831e-08 1.16648e-07
4.85218e-06 -1.99197e-08 8.2294e-08
5.12333e-06 -2.09058e-08 4.11145e-08
2.16292e-08 1.43032e-05 -9.31057e-07
2.6647e-08 1.32882e-05 -8.57659e-07
2.91832e-08 1.18283e-05 -7.54867e-07
4.34887e-06 -2.21305e-08 1.19845e-07
4.45898e-06 -2.32462e-08 8.52245e-08
4.62922e-06 -2.37188e-08 4.67252e-08
4.84406e-06 -1.45592e-08 6.34133e-08
2.54905e-08 1.42582e-05 -8.65936e-07
2.9478e-08 1.3211e-05 -7.9195e-07
3.09067e-08 1.17237e-05 -6.91782e-07
4.28339e-06 -2.05062e-08 1.28716e-07
4.26268e-06 -2.04288e-08 9.41385e-08
4.30765e-06 -1.95962e-08 5.82585e-08
2.93316e-08 1.42864e-05 -8.05862e-07
3.20497e-08 1.32029e-05 -7.35758e-07
3.32914e-08 1.16793e-05 -6.47126e-07
4.41495e-06 -1.2852e-08 5.924e-08
5.42429e-06 -1.16814e-08 6.37778e-08
4.92453e-06 -1.3601e-08 -8.6254e-08
4.71907e-06 -1.63104e-08 -8.86774e-09
5.12239e-06 -1.04606e-08 -1.92327e-07
5.52341e-08 1.46024e-05 -7.7566e-07
4.72058e-08 1.39231e-05 -7.73934e-07
3.65488e-08 1.24956e-05 -7.16214e-07
5.60322e-06 -1.70573e-08 -6.72887e-09
5.8609e-06 -1.48227e-08 -1.02199e-07
6.06708e-06 -1.12878e-08 -2.32387e-07
5.81538e-08 1.47448e-05 -8.14891e-07
3.91545e-08 1.26096e-05 -7.54772e-07
5.05601e-08 1.40621e-05 -8.16814e-07
7.0578e-06 -2.20809e-08 -4.32878e-09
7.30299e-06 -1.96778e-08 -1.29331e-07
7.44344e-06 -1.57439e-08 -2.95341e-07
4.50358e-08 1.41875e-05 -8.90476e-07
5.06939e-08 1.4899e-05 -8.9615e-07
3.72875e-08 1.26857e-05 -8.28012e-07
9.32198e-06 -2.52671e-08 -1.73775e-07
9.1802e-06 -3.0097e-08 -2.52793e-09
9.29825e-06 -2.18626e-08 -3.9287e-07
2.99777e-08 1.42638e-05 -1.0211e-06
3.28774e-08 1.50359e-05 -1.0336e-06
2.49849e-08 1.26789e-05 -9.45607e-07
1.18871e-05 -3.03408e-08 -2.47759e-07
1.19601e-05 -3.60981e-08 -1.4169e-08
1.15844e-05 -2.7406e-08 -5.32428e-07
3.64607e-09 1.42328e-05 -1.21583e-06
3.75346e-09 1.50985e-05 -1.253e-06
1.82318e-09 1.25332e-05 -1.10859e-06
1.49337e-05 -2.1065e-08 -3.2624e-07
1.53422e-05 -3.03331e-08 -3.67892e-08
1.42329e-05 -1.7696e-08 -6.71183e-07
-1.62748e-08 1.22072e-05 -1.18642e-06
-1.92327e-08 1.40445e-05 -1.34169e-06
-2.23873e-08 1.5038e-05 -1.40376e-06
4.57627e-06 -2.14671e-08 1.44537e-07
4.4234e-06 -2.01882e-08 1.07927e-07
4.33411e-06 -1.89311e-08 7.19893e-08
4.3251e-06 -1.52472e-08 5.59939e-08
3.83267e-08 1.43811e-05 -7.58007e-07
3.85957e-08 1.3261e-05 -6.97048e-07
3.5691e-08 1.16991e-05 -6.10569e-07
5.38664e-06 -2.71839e-08 1.82457e-07
5.1134e-06 -2.2868e-08 1.35273e-07
4.89131e-06 -1.99501e-08 9.4789e-08
4.75907e-06 -2.04607e-08 5.7672e-08
4.35111e-08 1.45242e-05 -7.74692e-07
4.12836e-08 1.33757e-05 -7.10614e-07
3.59148e-08 1.17777e-05 -6.2357e-07
6.82613e-06 -3.5562e-08 2.33265e-07
6.46888e-06 -3.03673e-08 1.83143e-07
6.13693e-06 -2.45723e-08 1.35552e-07
4.3278e-08 1.46962e-05 -8.65132e-07
3.81647e-08 1.35358e-05 -7.89505e-07
3.23017e-08 1.19057e-05 -6.98946e-07
9.02274e-06 -5.48474e-08 3.08759e-07
8.6419e-06 -4.51297e-08 2.60272e-07
8.24544e-06 -3.1334e-08 2.07827e-07
7.91718e-06 -4.07288e-08 9.07094e-08
3.32397e-08 1.48669e-05 -1.04534e-06
2.85978e-08 1.37087e-05 -9.56541e-07
2.14357e-08 1.20694e-05 -8.39649e-07
1.19928e-05 -8.36818e-08 3.92925e-07
1.16747e-05 -6.80068e-08 3.57246e-07
1.12855e-05 -4.49131e-08 3.10837e-07
1.12859e-08 1.49955e-05 -1.3424e-06
6.17568e-09 1.38795e-05 -1.23327e-06
1.30103e-09 1.2238e-05 -1.09635e-06
1.56998e-05 -1.10405e-07 5.31679e-07
1.55433e-05 -8.21119e-08 4.80005e-07
1.52467e-05 -5.22082e-08 4.24172e-07
-5.81865e-09 1.50541e-05 -1.53181e-06
-1.05277e-08 1.40013e-05 -1.41319e-06
-1.48219e-08 1.23983e-05 -1.2487e-06
1.49343e-05 -8.32819e-08 2.81806e-07
1.09161e-05 -6.19638e-08 1.60513e-07
5.89525e-06 -2.92199e-08 6.58495e-08
-3.18397e-08 2.45414e-05 -1.53733e-06
4.65056e-09 2.31837e-05 -1.50859e-06
2.44586e-08 2.20875e-05 -1.32917e-06
3.05405e-06 9.42759e-09 -7.16865e-07
-7.81486e-08 2.59965e-05 -1.48981e-06
1.53859e-05 2.48848e-08 -1.36278e-06
1.35847e-05 3.19492e-08 -1.75311e-06
1.16039e-05 1.63527e-08 -1.96296e-06
-6.87624e-09 9.70506e-06 -8.14958e-07
-1.16481e-08 9.85658e-06 -8.12814e-07
-4.5049e-08 1.48399e-05 -1.16341e-06
1.73867e-05 5.18349e-08 -1.59643e-06
1.50271e-05 5.43483e-08 -1.97008e-06
1.25622e-05 3.95488e-08 -2.16592e-06
-1.13895e-08 8.67403e-06 -7.41841e-07
-1.68195e-08 8.72739e-06 -7.36295e-07
-4.12852e-08 1.3662e-05 -1.10063e-06
1.87962e-05 7.88855e-08 -1.82085e-06
1.59012e-05 8.54538e-08 -2.1533e-06
1.30177e-05 7.68731e-08 -2.31194e-06
-7.36616e-09 7.32785e-06 -6.10095e-07
-1.19572e-08 7.32687e-06 -5.99369e-07
-2.50321e-08 1.22609e-05 -9.57288e-07
1.9204e-05 9.08127e-08 -1.9859e-06
1.58716e-05 1.13257e-07 -2.25122e-06
1.27139e-05 1.00206e-07 -2.32013e-06
-9.79452e-09 5.69925e-06 -4.83525e-07
-1.12349e-08 5.71138e-06 -4.58562e-07
-2.2956e-08 1.07291e-05 -8.15818e-07
1.82266e-05 9.28123e-08 -1.95917e-06
1.46256e-05 1.20811e-07 -2.18544e-06
1.14075e-05 1.12606e-07 -2.16485e-06
-9.66072e-09 3.84358e-06 -3.23966e-07
-1.00026e-08 3.95492e-06 -3.07579e-07
-1.71418e-08 9.15873e-06 -6.31963e-07
1.51782e-05 8.32053e-08 -1.76237e-06
1.16432e-05 1.04428e-07 -1.83621e-06
8.71542e-06 1.0387e-07 -1.73383e-06
-5.45126e-09 1.89788e-06 -1.47081e-07
-5.9386e-09 2.21798e-06 -1.56615e-07
-1.43956e-08 7.71491e-06 -4.75151e-07
4.42588e-06 5.85849e-08 -9.08543e-07
5.20237e-08 2.14332e-05 -1.03446e-06
-1.61101e-06 -1.25356e-08 3.86557e-07
8.24182e-08 2.14547e-05 -7.39071e-07
-7.64597e-06 -9.52039e-08 1.84502e-06
1.25252e-07 2.24868e-05 -3.50353e-07
-1.50476e-05 -2.28189e-07 3.64392e-06
2.05173e-07 2.48341e-05 2.4487e-07
-2.3734e-05 -4.2404e-07 5.70702e-06
3.41826e-07 2.87928e-05 1.20753e-06
5.55513e-07 3.46413e-05 2.70862e-06
9.6562e-06 6.55257e-08 -1.15539e-06
6.6158e-06 6.76863e-08 -1.07662e-06
-8.24737e-09 6.62405e-06 -3.38126e-07
-1.03229e-10 4.62485e-08 -3.0317e-09
-1.35925e-09 7.10231e-07 -4.21689e-08
-1.67578e-06 -2.47947e-08 3.51715e-07
1.22387e-06 1.06785e-08 -1.50573e-07
-7.73485e-07 -9.72255e-09 1.28649e-07
1.50678e-09 -1.45691e-06 7.10658e-08
1.43557e-10 -3.01517e-07 1.28109e-08
3.32461e-09 6.15768e-06 -2.16204e-07
-9.73627e-06 -1.64165e-07 2.06882e-06
-1.04697e-05 -1.17858e-07 1.30081e-06
-1.07635e-05 -1.61109e-07 1.80943e-06
-2.47398e-09 -2.29498e-06 5.39307e-08
-8.83856e-10 -4.94201e-07 9.08478e-09
1.91276e-08 6.63156e-06 -8.0787e-08
-2.5619e-05 -3.38212e-07 3.17934e-06
-2.34579e-05 -3.94114e-07 3.95028e-06
-1.97979e-05 -3.76233e-07 4.19258e-06
5.01044e-08 8.38164e-06 1.33045e-07
2.63198e-09 4.98753e-07 6.66526e-09
-8.72998e-09 -2.09162e-06 -1.77864e-08
-3.88389e-05 -7.58748e-07 6.37972e-06
-3.17945e-05 -6.70956e-07 6.6193e-06
-4.42607e-05 -6.80442e-07 5.39425e-06
1.19163e-07 1.17698e-05 6.055e-07
-3.42057e-09 -4.39693e-07 -2.05545e-08
2.79331e-08 3.06372e-06 1.5249e-07
-4.55456e-05 -1.0608e-06 9.12007e-06
-6.62038e-05 -1.07753e-06 7.9243e-06
-5.66839e-05 -1.16939e-06 9.13445e-06
2.50875e-07 1.71173e-05 1.55251e-06
3.76578e-08 3.07485e-06 2.86199e-07
1.04282e-07 7.57982e-06 7.05242e-07
-6.06455e-05 -1.47057e-06 1.21143e-05
-9.10556e-05 -1.5705e-06 1.09366e-05
-7.66019e-05 -1.65296e-06 1.2347e-05
1.7025e-05 2.85155e-08 -7.66819e-07
1.8227e-05 1.25565e-08 -3.79096e-07
1.90834e-05 -4.115e-09 -5.52948e-08
-3.59203e-08 1.48038e-05 -1.46831e-06
-1.95967e-08 1.163e-05 -1.19068e-06
-2.82162e-08 1.36343e-05 -1.38739e-06
2.28899e-05 5.01464e-08 -1.46198e-07
1.96541e-05 8.4687e-08 -8.96046e-07
2.14639e-05 6.15797e-08 -4.74821e-07
-4.43547e-08 1.43081e-05 -1.46477e-06
-1.6944e-08 1.07557e-05 -1.10907e-06
-3.14957e-08 1.29427e-05 -1.34847e-06
2.62738e-05 8.31837e-08 -2.47289e-07
2.418e-05 1.22309e-07 -6.12934e-07
2.17075e-05 1.32092e-07 -1.0225e-06
-5.17693e-08 1.34869e-05 -1.38693e-06
-1.08985e-08 9.54398e-06 -9.36921e-07
-3.06034e-08 1.1918e-05 -1.21034e-06
2.58371e-05 1.30219e-07 -6.89959e-07
2.86266e-05 8.68882e-08 -3.14753e-07
2.27008e-05 1.6631e-07 -1.11934e-06
-5.43169e-08 1.2323e-05 -1.23161e-06
-2.74593e-08 1.05311e-05 -1.00921e-06
-5.1864e-09 7.98986e-06 -7.18841e-07
2.58948e-05 1.25579e-07 -7.57188e-07
2.93567e-05 8.2116e-08 -4.10966e-07
2.21707e-05 1.5622e-07 -1.13816e-06
-2.37464e-08 8.78828e-06 -7.6769e-07
-5.49201e-08 1.07837e-05 -1.02534e-06
-8.6615e-10 6.12304e-06 -4.78994e-07
2.33613e-05 1.17081e-07 -8.07927e-07
2.73391e-05 7.86438e-08 -4.95824e-07
1.92652e-05 1.37335e-07 -1.11855e-06
-1.93186e-08 6.78074e-06 -5.32435e-07
-5.05259e-08 8.94025e-06 -7.73483e-07
4.71592e-10 4.06546e-06 -2.81758e-07
1.98971e-05 -1.03646e-07 7.59867e-07
2.00085e-05 -7.74421e-08 6.63805e-07
1.99001e-05 -4.81109e-08 5.59346e-07
1.97484e-05 -7.85882e-08 4.28508e-07
-2.0811e-08 1.49803e-05 -1.66414e-06
-2.51121e-08 1.40289e-05 -1.54795e-06
-2.80113e-08 1.24866e-05 -1.37058e-06
2.43116e-05 -7.83931e-08 1.00886e-06
2.48226e-05 -6.32258e-08 8.6486e-07
2.50265e-05 -4.38621e-08 7.06207e-07
2.51369e-05 -5.0099e-08 6.06519e-07
-3.85811e-08 1.38967e-05 -1.61158e-06
-3.99267e-08 1.24528e-05 -1.43366e-06
-3.25685e-08 1.47026e-05 -1.69875e-06
3.00916e-05 -6.0242e-08 8.87328e-07
2.84194e-05 -5.78053e-08 1.27204e-06
2.94543e-05 -5.65412e-08 1.08308e-06
3.05637e-05 -3.35706e-08 7.84764e-07
-4.98404e-08 1.21912e-05 -1.40617e-06
-3.79989e-08 1.40926e-05 -1.5915e-06
-4.50496e-08 1.34785e-05 -1.52593e-06
3.1522e-05 -5.86417e-08 1.4283e-06
3.31732e-05 -7.98356e-08 1.24145e-06
3.43501e-05 -9.76601e-08 1.02114e-06
3.52611e-05 -9.36516e-08 9.89837e-07
-5.2198e-08 1.16677e-05 -1.24113e-06
-3.48363e-08 1.31555e-05 -1.36507e-06
-4.56033e-08 1.27676e-05 -1.34939e-06
3.29816e-05 -8.64943e-08 1.49559e-06
3.53007e-05 -1.33288e-07 1.31687e-06
3.70811e-05 -1.79034e-07 1.0944e-06
3.86097e-05 -1.31958e-07 9.95468e-07
-5.32669e-08 1.08442e-05 -1.06365e-06
-2.96539e-08 1.18375e-05 -1.08089e-06
-4.38518e-08 1.1709e-05 -1.11759e-06
3.15392e-05 -1.09287e-07 1.30306e-06
3.44972e-05 -1.64268e-07 1.19678e-06
3.68897e-05 -2.20624e-07 1.0413e-06
3.89661e-05 -1.59074e-07 8.13692e-07
-2.62337e-08 1.01923e-05 -8.67203e-07
-4.20579e-08 1.03357e-05 -9.26725e-07
-5.34265e-08 9.72968e-06 -9.05258e-07
1.76114e-05 1.13747e-07 -7.06841e-07
2.18409e-05 8.92797e-08 -4.699e-07
1.3471e-05 1.1616e-07 -8.88998e-07
-9.42387e-09 4.64469e-06 -2.9911e-07
-3.60358e-08 6.89361e-06 -4.99495e-07
2.77923e-09 1.98388e-06 -1.08741e-07
1.20469e-05 7.11026e-08 -2.69988e-07
4.24082e-06 4.57054e-08 -3.00151e-07
7.96286e-06 6.30069e-08 -3.49043e-07
-1.86072e-09 2.58195e-06 -1.14412e-07
-2.0758e-08 4.81239e-06 -2.51639e-07
3.45814e-10 1.10462e-07 -3.83198e-09
-2.81197e-06 -2.22467e-08 6.66487e-08
-8.91039e-06 -1.1905e-07 6.52469e-07
-6.20658e-06 -6.35401e-08 2.81643e-07
-8.61331e-09 2.94251e-06 -7.52108e-08
-6.59517e-09 -1.25431e-06 1.13697e-08
8.68082e-10 8.68733e-07 -1.59563e-08
-2.63032e-05 -4.09775e-07 1.90292e-06
-2.53443e-05 -3.10173e-07 1.12864e-06
-2.33172e-05 -2.11287e-07 5.41046e-07
-1.37933e-08 -1.74566e-06 -4.02359e-08
-4.78007e-10 -1.46481e-07 -2.14965e-09
-1.81298e-09 1.60582e-06 1.19027e-08
-4.96752e-05 -6.3817e-07 2.12765e-06
-4.98242e-05 -4.76106e-07 1.07855e-06
-4.80503e-05 -7.8337e-07 3.37378e-06
-1.07147e-08 -9.52153e-07 -5.95934e-08
-3.7502e-10 -6.06261e-08 -3.36973e-09
1.58352e-09 1.18897e-06 5.85076e-08
-7.91681e-05 -1.02641e-06 3.13694e-06
-8.24168e-05 -7.79287e-07 1.50966e-06
-7.40321e-05 -1.22732e-06 4.93882e-06
1.54762e-08 1.56571e-06 1.65239e-07
9.67089e-09 2.12375e-06 2.1395e-07
2.39671e-08 1.55933e-06 1.72112e-07
-0.000120816 -1.21261e-06 2.52591e-06
-0.000103795 -1.83604e-06 7.34482e-06
-0.000113441 -1.56304e-06 4.89163e-06
2.63434e-05 -7.46297e-08 9.38724e-07
2.98232e-05 -1.24041e-07 9.29601e-07
3.27582e-05 -1.78385e-07 8.75823e-07
3.53687e-05 -1.61469e-07 6.34904e-07
-1.79382e-08 8.30213e-06 -6.10559e-07
-3.50585e-08 8.69911e-06 -6.83759e-07
-4.87066e-08 8.35875e-06 -6.90279e-07
1.64414e-05 -2.43606e-08 5.44604e-07
2.02104e-05 -5.66383e-08 6.03657e-07
2.35145e-05 -9.65921e-08 6.25e-07
2.64674e-05 -1.1444e-07 4.06007e-07
-7.9397e-09 6.31231e-06 -3.47505e-07
-2.45234e-08 6.91509e-06 -4.19273e-07
-3.92798e-08 6.81796e-06 -4.45214e-07
8.98836e-07 8.64292e-10 2.82263e-08
4.59391e-06 -1.89995e-09 1.30401e-07
7.97379e-06 -1.42917e-08 2.01532e-07
1.09914e-05 -3.8538e-08 1.70606e-07
1.47306e-09 4.43508e-06 -1.23815e-07
-1.24334e-08 5.16376e-06 -1.74435e-07
-2.6659e-08 5.25768e-06 -2.04776e-07
-2.1021e-05 -5.24837e-08 -6.54818e-07
-1.79057e-05 -2.02984e-08 -5.02821e-07
-1.4878e-05 3.65731e-09 -3.69812e-07
-1.21945e-05 5.66128e-08 -2.04649e-07
-2.72647e-09 3.6967e-06 -1.14083e-09
-1.52164e-08 3.89755e-06 -2.41692e-08