# vtk DataFile Version 3.0
vtk output
ASCII
DATASET POLYDATA
POINTS 15150 float
0.18548 0.75996 -0.0429108
0.195915 0.764891 -0.0428906
0.216747 0.764747 -0.0424506
0.257888 0.764558 -0.0425674
0.185617 0.749969 -0.0422253
0.196044 0.754894 -0.0422035
0.206425 0.759821 -0.0422765
0.237448 0.764637 -0.042311
0.247737 0.759611 -0.0421343
0.268112 0.759512 -0.0421553
0.308616 0.759358 -0.0421841
0.278234 0.764473 -0.0424276
0.298473 0.764395 -0.0424614
0.206517 0.74983 -0.0416242
0.216843 0.754756 -0.0418217
0.227173 0.75969 -0.0419722
0.237514 0.754645 -0.041714
0.257944 0.754562 -0.0419348
0.278274 0.754475 -0.0417762
0.288376 0.759434 -0.0420819
0.298505 0.754397 -0.0418228
0.185766 0.739978 -0.0415102
0.196173 0.744909 -0.041508
0.227244 0.749702 -0.0413208
0.175535 0.755032 -0.0414006
0.165127 0.7601 -0.0413856
0.247789 0.749624 -0.0415274
0.268152 0.749525 -0.0415149
0.288407 0.749444 -0.0414274
0.308634 0.749372 -0.0415292
0.206622 0.739839 -0.0410342
0.216939 0.744772 -0.0411779
0.237591 0.744663 -0.0411198
0.257997 0.744575 -0.041309
0.278309 0.74449 -0.041125
0.29853 0.744412 -0.0411852
0.18591 0.729986 -0.0408187
0.196311 0.734921 -0.0408372
0.154793 0.755171 -0.040549
0.175657 0.745048 -0.0407671
0.165253 0.750112 -0.0407732
0.227335 0.739712 -0.040769
0.258052 0.734578 -0.040687
0.247846 0.739627 -0.04093
0.268194 0.739529 -0.0408769
0.288436 0.739448 -0.0408078
0.308654 0.739377 -0.0408926
0.144261 0.760232 -0.0403558
0.196408 0.724921 -0.0402799
0.206722 0.729849 -0.0404412
0.217039 0.734782 -0.0405663
0.247906 0.72963 -0.0403112
0.237666 0.734676 -0.0405539
0.278346 0.734497 -0.0404845
0.298557 0.734417 -0.0405728
0.186035 0.72 -0.0401658
0.217117 0.724785 -0.0399717
0.175779 0.735059 -0.0401366
0.16537 0.740123 -0.0401642
0.22742 0.729724 -0.0402139
0.258101 0.724576 -0.0400547
0.268234 0.729537 -0.0402393
0.288466 0.729454 -0.0401956
0.308677 0.729384 -0.040259
0.318663 0.764305 -0.0428636
0.338892 0.764253 -0.042949
0.359125 0.764187 -0.0428031
0.379431 0.76415 -0.043021
0.399547 0.76412 -0.0428615
0.328799 0.759283 -0.0426092
0.349042 0.759217 -0.0424955
0.369217 0.759171 -0.0424849
0.379433 0.754159 -0.0423526
0.389488 0.759139 -0.0425992
0.318668 0.754311 -0.0421937
0.328829 0.749296 -0.0419298
0.389489 0.749154 -0.0419372
0.399535 0.754132 -0.0422113
0.338928 0.754266 -0.0422616
0.359141 0.754203 -0.0421183
0.31871 0.744329 -0.0415241
0.338954 0.744279 -0.0415902
0.379429 0.74418 -0.0416837
0.39953 0.744151 -0.0415295
0.349065 0.749239 -0.0418139
0.36922 0.749193 -0.0418042
0.328878 0.739311 -0.0412543
0.349084 0.739246 -0.0411417
0.369235 0.739201 -0.041123
0.389477 0.739166 -0.0412665
0.35916 0.744225 -0.0414328
0.318782 0.734345 -0.0408641
0.338996 0.73429 -0.0409233
0.35918 0.734233 -0.0407744
0.379427 0.734193 -0.0410293
0.399516 0.734164 -0.040879
0.379432 0.724192 -0.0403828
0.328932 0.729325 -0.0405927
0.349116 0.729262 -0.0404784
0.36925 0.729217 -0.0404473
0.38947 0.72918 -0.0406117
0.318857 0.724353 -0.0401895
0.339042 0.724293 -0.0402452
0.359205 0.724242 -0.0401035
0.399503 0.72417 -0.0402276
0.409507 0.75911 -0.0425625
0.419631 0.764092 -0.0429619
0.439756 0.764077 -0.0430441
0.459864 0.764072 -0.042935
0.479963 0.764074 -0.0429086
0.439753 0.754086 -0.0423804
0.459857 0.754081 -0.0422802
0.479951 0.754083 -0.0422564
0.429707 0.759091 -0.0426237
0.449804 0.759081 -0.0426372
0.469902 0.759079 -0.0425779
0.489991 0.759084 -0.042601
0.409497 0.749125 -0.0418997
0.419643 0.754106 -0.0422942
0.429704 0.749108 -0.0419542
0.449796 0.749098 -0.0419643
0.46989 0.749096 -0.0419108
0.489975 0.749101 -0.0419376
0.419642 0.744126 -0.0416074
0.439741 0.744113 -0.0416796
0.459832 0.744108 -0.0415889
0.479914 0.744109 -0.0415682
0.409515 0.739139 -0.0412183
0.4297 0.739122 -0.0412744
0.449779 0.739112 -0.0412806
0.46986 0.73911 -0.0412365
0.489934 0.739114 -0.0412663
0.41965 0.73414 -0.0409509
0.439733 0.734127 -0.0410136
0.45981 0.734121 -0.0409341
0.47988 0.734123 -0.0409154
0.409537 0.729153 -0.0405561
0.439731 0.724128 -0.0403525
0.429699 0.729136 -0.0406145
0.449764 0.729126 -0.0406154
0.469832 0.729123 -0.0405804
0.489892 0.729127 -0.0406126
0.500005 0.754093 -0.0423414
0.419658 0.724146 -0.0402917
0.459789 0.724127 -0.0402772
0.479845 0.724128 -0.0402598
0.499987 0.764084 -0.0429878
0.520037 0.764075 -0.0429205
0.540135 0.764072 -0.0429503
0.560245 0.764078 -0.043057
0.580369 0.764093 -0.0429797
0.520049 0.754084 -0.0422672
0.540143 0.754081 -0.0422944
0.560248 0.754087 -0.0423918
0.580362 0.7541 -0.0423184
0.510009 0.759085 -0.0426117
0.530098 0.759079 -0.0425905
0.550197 0.759082 -0.0426482
0.570294 0.759091 -0.0426378
0.590492 0.75911 -0.0425612
0.510025 0.749102 -0.0419473
0.53011 0.749097 -0.0419225
0.550204 0.749099 -0.0419738
0.570296 0.749109 -0.0419668
0.590502 0.749125 -0.0418984
0.500008 0.744118 -0.0416562
0.520085 0.744109 -0.0415792
0.540167 0.744108 -0.0416037
0.56026 0.744113 -0.0416913
0.580358 0.744125 -0.0416237
0.510065 0.739114 -0.041278
0.530139 0.739109 -0.0412506
0.550222 0.739111 -0.0412932
0.5703 0.739121 -0.04129
0.590485 0.739139 -0.0412169
0.500054 0.734129 -0.0410098
0.520119 0.734121 -0.0409277
0.540188 0.73412 -0.0409505
0.560267 0.734126 -0.0410269
0.58035 0.734138 -0.0409686
0.500073 0.724129 -0.0403587
0.560269 0.724126 -0.0403665
0.510107 0.729126 -0.0406253
0.530167 0.729122 -0.0405949
0.550236 0.729125 -0.0406284
0.570301 0.729134 -0.0406301
0.590462 0.729153 -0.040555
0.510124 0.719133 -0.0399796
0.5703 0.719141 -0.0399833
0.520154 0.724127 -0.0402732
0.54021 0.724126 -0.0402943
0.580342 0.724145 -0.0403102
0.600453 0.76412 -0.0428605
0.620569 0.76415 -0.0430204
0.640874 0.764187 -0.042803
0.661107 0.764254 -0.0429488
0.620566 0.754159 -0.042352
0.610512 0.759139 -0.0425985
0.630783 0.759171 -0.0424843
0.650957 0.759217 -0.0424955
0.6712 0.759284 -0.0426081
0.681336 0.764306 -0.0428627
0.61051 0.749154 -0.0419364
0.600464 0.754132 -0.0422103
0.640858 0.754204 -0.0421183
0.661071 0.754267 -0.0422614
0.67117 0.749297 -0.0419288
0.681332 0.754312 -0.0421928
0.600469 0.744151 -0.0415285
0.62057 0.74418 -0.0416831
0.661045 0.74428 -0.04159
0.630779 0.749193 -0.0418037
0.650935 0.74924 -0.0418139
0.681289 0.74433 -0.0415233
0.610523 0.739166 -0.0412656
0.630764 0.739201 -0.0411225
0.650915 0.739246 -0.0411419
0.671121 0.739312 -0.0412533
0.640839 0.744225 -0.0414328
0.600483 0.734164 -0.040878
0.620572 0.734193 -0.0410287
0.640819 0.734233 -0.0407746
0.661003 0.734291 -0.0409231
0.681217 0.734346 -0.0408634
0.620567 0.724192 -0.0403824
0.61053 0.72918 -0.0406111
0.630749 0.729217 -0.0404471
0.650884 0.729263 -0.0404789
0.671068 0.729325 -0.0405923
0.600497 0.72417 -0.0402268
0.640794 0.724243 -0.040104
0.660957 0.724293 -0.0402456
0.681142 0.724354 -0.0401893
0.804085 0.764891 -0.0428913
0.81452 0.759961 -0.0429124
0.742111 0.764559 -0.0425675
0.783253 0.764747 -0.0424512
0.691383 0.759359 -0.0421835
0.731888 0.759513 -0.0421553
0.752263 0.759611 -0.0421347
0.701526 0.764396 -0.042461
0.721765 0.764474 -0.0424275
0.762551 0.764638 -0.0423113
0.814383 0.74997 -0.0422269
0.793574 0.759821 -0.0422773
0.803956 0.754894 -0.0422043
0.701494 0.754398 -0.0418224
0.721725 0.754475 -0.0417761
0.711623 0.759434 -0.0420816
0.742055 0.754563 -0.0419348
0.762485 0.754645 -0.0417145
0.793482 0.749831 -0.041625
0.783156 0.754757 -0.0418224
0.772826 0.759691 -0.0419729
0.691366 0.749373 -0.0415286
0.711592 0.749444 -0.0414272
0.731848 0.749525 -0.0415149
0.75221 0.749624 -0.041528
0.814234 0.739979 -0.0415119
0.803826 0.74491 -0.0415089
0.772755 0.749702 -0.0413215
0.824464 0.755033 -0.0414017
0.834873 0.760101 -0.0413868
0.701469 0.744412 -0.0411849
0.72169 0.74449 -0.0411249
0.742002 0.744576 -0.0413091
0.762409 0.744663 -0.0411204
0.793378 0.739839 -0.0410352
0.783061 0.744772 -0.0411787
0.741947 0.734578 -0.0406871
0.691345 0.739378 -0.0408921
0.711563 0.739449 -0.0408077
0.731805 0.739529 -0.040877
0.752154 0.739628 -0.0409304
0.772665 0.739713 -0.04077
0.81409 0.729987 -0.04082
0.803689 0.734922 -0.0408383
0.824343 0.745049 -0.0407682
0.834747 0.750113 -0.0407744
0.845207 0.755171 -0.0405503
0.752094 0.72963 -0.0403118
0.701442 0.734418 -0.0405726
0.721654 0.734498 -0.0404845
0.762333 0.734677 -0.0405548
0.803592 0.724921 -0.0402808
0.793277 0.72985 -0.0404421
0.782961 0.734783 -0.0405673
0.855739 0.760232 -0.0403571
0.741898 0.724577 -0.040055
0.691322 0.729385 -0.0402589
0.711534 0.729455 -0.0401958
0.731765 0.729537 -0.0402396
0.772579 0.729725 -0.0402148
0.813965 0.72 -0.0401671
0.782883 0.724785 -0.0399726
0.824221 0.735059 -0.0401378
0.83463 0.740124 -0.0401654
0.121748 0.890352 -0.0455502
0.121949 0.880355 -0.0448678
0.12214 0.870366 -0.0441723
0.122338 0.860359 -0.0434678
0.122523 0.850362 -0.0428161
0.122604 0.840356 -0.0424208
0.122627 0.83035 -0.0421329
0.112381 0.885371 -0.041833
0.11223 0.895355 -0.0423964
0.121535 0.900352 -0.0462003
0.112001 0.905339 -0.0430752
0.121325 0.910347 -0.0468036
0.111773 0.915325 -0.0437314
0.121129 0.920342 -0.0473807
0.111558 0.925308 -0.0443951
0.120959 0.930334 -0.0479164
0.111406 0.935291 -0.0449371
0.120829 0.940321 -0.0484106
0.120744 0.950303 -0.0488926
0.11128 0.945273 -0.0454501
0.101345 0.950353 -0.0430288
0.101536 0.940366 -0.0424451
0.101714 0.930374 -0.0418979
0.12265 0.820351 -0.0418473
0.10187 0.920385 -0.0413691
0.12277 0.810349 -0.0413419
0.112521 0.875392 -0.041271
0.102017 0.910395 -0.0408193
0.112661 0.865397 -0.0407385
0.122935 0.800362 -0.0407866
0.10216 0.900405 -0.0402655
0.123096 0.790359 -0.040224
0.112801 0.855392 -0.0402131
0.111151 0.955246 -0.0459828
0.0915538 0.955393 -0.0401735
0.120601 0.960272 -0.0494231
0.101158 0.960319 -0.0435962
0.111012 0.965207 -0.046495
0.0914202 0.965364 -0.0406288
0.120453 0.970243 -0.0499815
0.100986 0.970288 -0.0441714
0.110891 0.975169 -0.0469948
0.0912825 0.975342 -0.0411249
0.120301 0.980216 -0.0505566
0.100847 0.980252 -0.0446916
0.110777 0.985131 -0.0475076
0.0911433 0.985311 -0.0416594
0.12012 0.990199 -0.0511861
0.100669 0.990209 -0.0452549
[...]
POINT_DATA 15150
VECTORS alpha float
1.97556e-06 -1.42329e-08 7.56943e-08
-1.58796e-07 1.88135e-05 -1.25269e-06
-1.00297e-07 1.76688e-05 -1.16672e-06
-6.04641e-08 1.40695e-05 -9.58407e-07
1.92906e-06 -1.36502e-08 7.30112e-08
-1.54346e-07 1.88589e-05 -1.28079e-06
2.04726e-06 -1.35267e-08 6.04707e-08
-5.3085e-08 1.5957e-05 -1.05577e-06
2.17017e-06 -9.98632e-09 1.97834e-08
2.22525e-06 -9.43307e-09 1.87504e-08
2.32941e-06 -6.8441e-09 1.44794e-09
-2.93556e-08 1.22607e-05 -8.38313e-07
-1.49552e-08 1.06585e-05 -7.24063e-07
1.99856e-06 -1.29811e-08 5.84344e-08
-9.49004e-08 1.77104e-05 -1.17816e-06
2.11448e-06 -1.21968e-08 3.63828e-08
-5.20782e-08 1.59972e-05 -1.06489e-06
-5.42653e-08 1.41055e-05 -9.6193e-07
-2.87849e-08 1.22942e-05 -8.43419e-07
2.27744e-06 -8.17603e-09 6.85405e-09
-1.35082e-08 1.06887e-05 -7.24935e-07
1.88689e-06 -1.29601e-08 6.92378e-08
-1.43139e-07 1.88994e-05 -1.28185e-06
2.06482e-06 -1.17104e-08 3.57759e-08
-1.66168e-07 1.9035e-05 -1.23382e-06
1.87481e-06 -1.27716e-08 -9.11534e-09
2.11857e-06 -9.59729e-09 2.30796e-08
2.17296e-06 -9.03809e-09 2.08165e-08
2.22462e-06 -7.85516e-09 8.20503e-09
2.27545e-06 -6.67695e-09 2.76275e-09
1.95365e-06 -1.23049e-08 5.82387e-08
-8.86692e-08 1.77497e-05 -1.19163e-06
-4.84097e-08 1.6034e-05 -1.07912e-06
-4.66647e-08 1.41386e-05 -9.62289e-07
-2.37798e-08 1.23238e-05 -8.46943e-07
-9.84825e-09 1.07155e-05 -7.25643e-07
1.7918e-06 -1.20026e-08 6.4811e-08
-1.30541e-07 1.89375e-05 -1.27991e-06
-1.82145e-07 1.80592e-05 -1.1607e-06
-1.57089e-07 1.90771e-05 -1.24083e-06
1.83147e-06 -1.23144e-08 -7.36669e-09
2.01661e-06 -1.09542e-08 3.79999e-08
-4.2344e-08 1.41714e-05 -9.61056e-07
2.07081e-06 -9.1593e-09 2.73276e-08
2.12422e-06 -8.56779e-09 2.30271e-08
2.17509e-06 -7.46595e-09 1.0958e-08
2.2249e-06 -6.35609e-09 5.1729e-09
1.79189e-06 -1.19321e-08 -6.57244e-08
-1.20518e-07 1.89759e-05 -1.26646e-06
1.8545e-06 -1.1406e-08 5.7153e-08
-7.96458e-08 1.77864e-05 -1.2041e-06
1.96519e-06 -8.53458e-09 2.81183e-08
-4.29797e-08 1.60688e-05 -1.09364e-06
-1.91427e-08 1.2352e-05 -8.50492e-07
-6.39997e-09 1.07412e-05 -7.2673e-07
1.77135e-06 -1.15268e-08 6.45857e-08
-7.35724e-08 1.78238e-05 -1.20714e-06
-1.49603e-07 1.91182e-05 -1.25586e-06
1.79341e-06 -1.17932e-08 -4.71523e-09
1.91242e-06 -1.00375e-08 4.03654e-08
-3.60347e-08 1.42027e-05 -9.68176e-07
2.01555e-06 -8.03144e-09 2.42035e-08
2.06408e-06 -6.99133e-09 1.34148e-08
2.11127e-06 -5.9845e-09 7.45645e-09
-6.4051e-09 9.28045e-06 -6.53997e-07
4.43953e-09 8.084e-06 -5.74756e-07
6.84467e-09 7.00306e-06 -4.99183e-07
-5.35709e-09 5.97873e-06 -4.26362e-07
-4.70485e-09 4.97908e-06 -3.56455e-07
2.38175e-06 -5.83996e-09 1.65465e-08
2.41424e-06 -5.29314e-09 1.17015e-08
2.44604e-06 -3.98399e-09 5.88219e-09
-5.62139e-09 5.99696e-06 -4.26014e-07
2.48436e-06 -3.70065e-09 1.90283e-08
-1.647e-09 9.30604e-06 -6.54783e-07
2.32572e-06 -5.49037e-09 1.62768e-08
2.42691e-06 -3.53797e-09 1.87188e-08
-3.73437e-09 4.99351e-06 -3.58e-07
4.20137e-09 8.1076e-06 -5.77375e-07
6.75217e-09 7.02355e-06 -5.01427e-07
-2.43048e-09 9.33117e-06 -6.52465e-07
3.47928e-09 8.13026e-06 -5.75412e-07
-5.01021e-09 6.01354e-06 -4.25635e-07
-4.00044e-09 5.00827e-06 -3.56935e-07
2.35684e-06 -5.0832e-09 1.15438e-08
2.38837e-06 -3.82667e-09 5.46034e-09
2.27174e-06 -5.06596e-09 1.69346e-08
2.30396e-06 -4.78656e-09 1.24218e-08
2.33491e-06 -3.56125e-09 6.03502e-09
2.37138e-06 -3.42235e-09 1.78389e-08
6.30554e-09 7.0427e-06 -5.02447e-07
-3.38771e-09 9.35457e-06 -6.52699e-07
2.97737e-09 8.15133e-06 -5.75835e-07
5.40632e-09 7.06124e-06 -5.01356e-07
-4.61864e-09 6.02916e-06 -4.25424e-07
-3.48553e-09 5.02139e-06 -3.57341e-07
-5.01156e-09 6.04505e-06 -4.23402e-07
2.15338e-06 -4.72457e-09 1.78647e-08
2.18399e-06 -4.46845e-09 1.29756e-08
2.21346e-06 -3.3539e-09 6.16587e-09
2.24764e-06 -3.23546e-09 1.63814e-08
-4.4006e-09 9.37772e-06 -6.54723e-07
1.88471e-09 8.1721e-06 -5.7731e-07
4.1503e-09 7.07885e-06 -5.03188e-07
-3.3537e-09 5.03436e-06 -3.57539e-07
2.51227e-06 -3.19319e-09 6.53707e-09
2.72083e-09 3.98472e-06 -2.86791e-07
6.29672e-10 2.98947e-06 -2.15738e-07
9.20435e-11 1.9928e-06 -1.43681e-07
-1.09157e-10 9.9618e-07 -7.18282e-08
7.10179e-10 2.99843e-06 -2.15493e-07
2.48545e-10 1.99879e-06 -1.43426e-07
4.08972e-11 9.99179e-07 -7.17229e-08
2.53383e-06 -1.07192e-09 8.75186e-09
2.55141e-06 -6.7076e-10 1.37932e-08
2.5618e-06 2.2925e-10 3.02299e-09
2.56676e-06 1.11807e-09 -9.10792e-09
2.45433e-06 -3.07055e-09 6.12933e-09
2.95878e-09 3.99638e-06 -2.87143e-07
2.47507e-06 -1.07837e-09 8.84223e-09
2.49225e-06 -6.57943e-10 1.30087e-08
2.5025e-06 1.85654e-10 2.59883e-09
2.50744e-06 1.02794e-09 -9.4804e-09
2.7576e-09 4.00833e-06 -2.85933e-07
5.18386e-10 3.00715e-06 -2.15326e-07
1.77956e-10 2.00462e-06 -1.43311e-07
3.3246e-11 1.0021e-06 -7.16958e-08
2.39727e-06 -2.68376e-09 6.1463e-09
2.41787e-06 -1.02929e-09 9.08364e-09
2.43453e-06 -5.90539e-10 1.20485e-08
2.44462e-06 1.90346e-10 2.31238e-09
2.44947e-06 9.75873e-10 -9.76317e-09
2.87478e-09 4.01897e-06 -2.85831e-07
4.47752e-10 3.01512e-06 -2.15343e-07
2.29644e-10 2.00995e-06 -1.43186e-07
1.1064e-10 1.00477e-06 -7.16562e-08
2.2712e-06 -2.29253e-09 5.8411e-09
2.26945e-10 3.02321e-06 -2.14471e-07
2.2911e-06 -9.72876e-10 9.16923e-09
2.30676e-06 -5.60032e-10 1.08819e-08
2.31639e-06 1.32007e-10 2.08289e-09
2.32105e-06 8.33451e-10 -9.68609e-09
-8.65702e-15 9.40577e-11 -6.77169e-12
2.77129e-09 4.02945e-06 -2.85663e-07
2.21942e-10 2.01523e-06 -1.43037e-07
1.7288e-10 1.00741e-06 -7.15911e-08
1.10165e-14 9.32203e-11 -6.74287e-12
-1.31764e-10 -9.95994e-07 7.19459e-08
8.33774e-11 -1.99261e-06 1.43912e-07
7.09202e-10 -2.98928e-06 2.16256e-07
2.87074e-09 -3.98454e-06 2.87572e-07
1.57022e-11 -9.99003e-07 7.18076e-08
2.35316e-10 -1.99861e-06 1.43583e-07
7.55802e-10 -2.99827e-06 2.15939e-07
3.11701e-09 -3.99658e-06 2.86931e-07
2.56668e-06 -1.16754e-09 9.05164e-09
2.56175e-06 -2.43599e-10 -3.4599e-09
2.55132e-06 6.24814e-10 -1.40021e-08
2.53383e-06 1.05544e-09 -9.3566e-09
2.5123e-06 3.17293e-09 -6.62698e-09
2.5074e-06 -1.06794e-09 9.41493e-09
2.50253e-06 -1.91444e-10 -3.04103e-09
2.49226e-06 6.0992e-10 -1.31888e-08
2.4752e-06 1.05906e-09 -9.41141e-09
2.45451e-06 3.05057e-09 -6.21502e-09
5.88095e-15 1.02946e-10 -7.37796e-12
1.69186e-11 -1.00191e-06 7.16988e-08
1.78409e-10 -2.00444e-06 1.43344e-07
5.26974e-10 -3.00699e-06 2.15488e-07
2.82135e-09 -4.0082e-06 2.86203e-07
2.44939e-06 -1.01502e-09 9.66279e-09
2.44454e-06 -2.06533e-10 -2.82284e-09
2.43435e-06 5.43174e-10 -1.21821e-08
2.41773e-06 9.99934e-10 -9.65954e-09
2.39711e-06 2.66356e-09 -6.22819e-09
-9.68518e-15 9.37835e-11 -6.69181e-12
1.21206e-10 -1.00457e-06 7.15825e-08
2.74493e-10 -2.00975e-06 1.43121e-07
4.5989e-10 -3.01491e-06 2.15235e-07
2.96017e-09 -4.01875e-06 2.85664e-07
-1.85956e-14 9.48317e-11 -6.71987e-12
2.60041e-10 -3.02297e-06 2.14326e-07
2.32101e-06 -8.62345e-10 9.71144e-09
2.31639e-06 -1.47872e-10 -2.52134e-09
2.3067e-06 5.21412e-10 -1.0933e-08
2.29113e-06 9.44504e-10 -9.69466e-09
2.27123e-06 2.27101e-09 -5.91676e-09
2.30109e-06 -8.12726e-10 9.73816e-09
2.27128e-06 9.43648e-10 -1.03346e-08
1.83713e-10 -1.00721e-06 7.15007e-08
2.67849e-10 -2.015e-06 1.42931e-07
2.88513e-09 -4.02919e-06 2.85447e-07
-4.69976e-09 -4.9789e-06 3.56468e-07
-5.35085e-09 -5.97856e-06 4.26383e-07
6.85443e-09 -7.00288e-06 4.99152e-07
4.45448e-09 -8.08381e-06 5.74759e-07
-5.61237e-09 -5.99679e-06 4.26021e-07
2.48438e-06 3.68765e-09 -1.90803e-08
2.44606e-06 3.97796e-09 -5.90564e-09
2.41425e-06 5.30246e-09 -1.17025e-08
2.38179e-06 5.8312e-09 -1.66161e-08
-6.38097e-09 -9.28028e-06 6.53927e-07
2.42712e-06 3.52513e-09 -1.87691e-08
-3.72698e-09 -4.99334e-06 3.58001e-07
6.76536e-09 -7.02337e-06 5.01373e-07
4.22103e-09 -8.10741e-06 5.7735e-07
2.32606e-06 5.48198e-09 -1.63466e-08
-1.62015e-09 -9.30588e-06 6.54707e-07
-3.99078e-09 -5.00808e-06 3.56926e-07
-4.99841e-09 -6.01336e-06 4.25628e-07
3.50324e-09 -8.13005e-06 5.75364e-07
2.3886e-06 3.82069e-09 -5.48203e-09
2.35711e-06 5.09278e-09 -1.15471e-08
-2.40145e-09 -9.33098e-06 6.52384e-07
2.37117e-06 3.40873e-09 -1.78849e-08
2.33465e-06 3.55376e-09 -6.0571e-09
2.30365e-06 4.79415e-09 -1.2425e-08
2.27141e-06 5.05512e-09 -1.69999e-08
6.32212e-09 -7.04249e-06 5.02371e-07
-3.47435e-09 -5.02122e-06 3.57322e-07
-4.60479e-09 -6.029e-06 4.25402e-07
5.42563e-09 -7.06105e-06 5.01258e-07
3.00512e-09 -8.15114e-06 5.75761e-07
-3.35708e-09 -9.35439e-06 6.52614e-07
-4.99442e-09 -6.04489e-06 4.23381e-07
2.24767e-06 3.2198e-09 -1.64259e-08
2.21348e-06 3.34375e-09 -6.18781e-09
2.18401e-06 4.47279e-09 -1.29821e-08
2.15343e-06 4.72243e-09 -1.79194e-08
-3.33997e-09 -5.03418e-06 3.57526e-07
4.17387e-09 -7.07865e-06 5.03081e-07
1.91679e-09 -8.17191e-06 5.77213e-07
-4.36754e-09 -9.37753e-06 6.5463e-07
-1.58682e-07 -1.88134e-05 1.25251e-06
1.97561e-06 1.42269e-08 -7.57009e-08
-6.04375e-08 -1.40694e-05 9.58423e-07
-1.00176e-07 -1.76687e-05 1.16654e-06
2.32945e-06 6.83108e-09 -1.49771e-09
2.22528e-06 9.413e-09 -1.87726e-08
2.1702e-06 9.97552e-09 -1.97931e-08
-1.49287e-08 -1.06584e-05 7.24006e-07
-2.93276e-08 -1.22605e-05 8.38282e-07
-5.29635e-08 -1.59568e-05 1.05558e-06
1.92969e-06 1.36484e-08 -7.30402e-08
2.0473e-06 1.35247e-08 -6.04783e-08
-1.54215e-07 -1.88587e-05 1.28058e-06
-1.34773e-08 -1.06885e-05 7.24866e-07
-2.87518e-08 -1.2294e-05 8.4337e-07
2.27748e-06 8.15943e-09 -6.88879e-09
-5.42323e-08 -1.41054e-05 9.61924e-07
-5.19436e-08 -1.59971e-05 1.06467e-06
1.99915e-06 1.29827e-08 -5.84582e-08
-9.4764e-08 -1.77103e-05 1.17795e-06
2.11451e-06 1.21946e-08 -3.63945e-08
2.27583e-06 6.66479e-09 -2.81047e-09
2.22504e-06 7.83987e-09 -8.23883e-09
2.17342e-06 9.01987e-09 -2.08402e-08
2.11907e-06 9.5884e-09 -2.30945e-08
1.88624e-06 1.29497e-08 -6.92171e-08
-1.42991e-07 -1.88993e-05 1.28161e-06
2.06536e-06 1.1711e-08 -3.57968e-08
-1.65942e-07 -1.90348e-05 1.23374e-06
1.87487e-06 1.27675e-08 9.09827e-09
-9.81441e-09 -1.07153e-05 7.25565e-07
-2.37427e-08 -1.23237e-05 8.4688e-07
-4.66275e-08 -1.41384e-05 9.62265e-07
-4.82625e-08 -1.60338e-05 1.07888e-06
1.95304e-06 1.22998e-08 -5.82237e-08
-8.85176e-08 -1.77495e-05 1.19139e-06
-4.23036e-08 -1.41712e-05 9.61026e-07
2.22452e-06 6.34096e-09 -5.21938e-09
2.17466e-06 7.44722e-09 -1.09872e-08
2.12375e-06 8.54583e-09 -2.30383e-08
2.07029e-06 9.14471e-09 -2.73316e-08
2.01603e-06 1.09498e-08 -3.79967e-08
1.79187e-06 1.20059e-08 -6.48158e-08
-1.3038e-07 -1.89373e-05 1.27964e-06
-1.56831e-07 -1.90768e-05 1.2407e-06
1.83214e-06 1.23143e-08 7.35016e-09
-1.81939e-07 -1.8059e-05 1.16059e-06
1.96525e-06 8.52903e-09 -2.81215e-08
-6.36413e-09 -1.0741e-05 7.26649e-07
-1.91029e-08 -1.23519e-05 8.50424e-07
-4.2823e-08 -1.60686e-05 1.09338e-06
-1.20438e-07 -1.89757e-05 1.26635e-06
1.85456e-06 1.14092e-08 -5.71576e-08
-7.94821e-08 -1.77863e-05 1.20384e-06
1.79194e-06 1.19268e-08 6.57149e-08
-3.59907e-08 -1.42025e-05 9.68143e-07
2.11132e-06 5.97807e-09 -7.49199e-09
2.06413e-06 6.9813e-09 -1.34355e-08
2.0156e-06 8.01814e-09 -2.42111e-08
1.91248e-06 1.00411e-08 -4.03709e-08
1.77139e-06 1.15299e-08 -6.45898e-08
-7.34928e-08 -1.78236e-05 1.20704e-06
-1.49315e-07 -1.91179e-05 1.2557e-06
1.79275e-06 1.17842e-08 4.69477e-09
2.28928e-06 -1.66668e-08 -3.04937e-07
2.22878e-06 -1.62422e-08 -2.96483e-07
2.17026e-06 -1.5836e-08 -2.89247e-07
2.08985e-06 -1.5114e-08 -2.79089e-07
2.04331e-06 -1.46824e-08 -2.71662e-07
2.0058e-06 -1.42461e-08 -2.50164e-07
1.96863e-06 -1.37491e-08 -2.23512e-07
-1.93634e-07 1.40822e-05 -8.41735e-07
-1.9003e-07 1.40301e-05 -8.61967e-07
2.33726e-06 -1.70921e-08 -3.12101e-07
-2.00134e-07 1.39761e-05 -8.8464e-07
2.40007e-06 -1.7669e-08 -3.23391e-07
-1.57149e-07 1.3919e-05 -8.57886e-07
2.4634e-06 -1.84486e-08 -3.36577e-07
-1.35845e-07 1.38609e-05 -8.2578e-07
2.52867e-06 -1.90829e-08 -3.51071e-07
-1.25801e-07 1.38024e-05 -7.93664e-07
2.58071e-06 -1.96253e-08 -3.62674e-07
2.6383e-06 -1.98471e-08 -3.77692e-07
-1.27874e-07 1.37429e-05 -7.88607e-07
2.39775e-06 -1.55033e-08 -6.00012e-07
2.3408e-06 -1.50684e-08 -5.82639e-07
2.29266e-06 -1.45977e-08 -5.65603e-07
1.93428e-06 -1.32946e-08 -1.98254e-07
2.23583e-06 -1.40968e-08 -5.4396e-07
1.89204e-06 -1.27873e-08 -1.86054e-07
-1.95596e-07 1.41321e-05 -8.24431e-07
2.18038e-06 -1.35826e-08 -5.23102e-07
-2.01861e-07 1.41819e-05 -8.25297e-07
1.85205e-06 -1.25019e-08 -1.77009e-07
2.1265e-06 -1.34284e-08 -5.02818e-07
1.81054e-06 -1.2083e-08 -1.67966e-07
-2.04003e-07 1.42293e-05 -8.33984e-07
-1.36178e-07 1.36842e-05 -7.96282e-07
-1.7076e-07 1.44539e-05 -7.88884e-07
2.69417e-06 -1.96573e-08 -3.90359e-07
2.45244e-06 -1.56649e-08 -6.16939e-07
-1.3849e-07 1.36231e-05 -8.25786e-07
-1.58662e-07 1.43921e-05 -8.23307e-07
2.75077e-06 -1.95992e-08 -4.0368e-07
2.50523e-06 -1.58603e-08 -6.36291e-07
-1.4815e-07 1.35616e-05 -8.55343e-07
-1.46935e-07 1.4328e-05 -8.50865e-07
2.80937e-06 -1.96647e-08 -4.16473e-07
2.55881e-06 -1.6191e-08 -6.55335e-07
-1.61911e-07 1.35005e-05 -8.67617e-07
-1.25378e-07 1.42599e-05 -8.70517e-07
2.95057e-06 -2.06297e-08 -4.41858e-07
2.68149e-06 -1.70701e-08 -6.91846e-07
-1.5643e-07 1.34335e-05 -8.72735e-07
-1.22089e-07 1.41911e-05 -8.53622e-07
2.74603e-06 -1.76764e-08 -7.13391e-07
-1.23559e-07 1.33641e-05 -8.50521e-07
-8.8588e-08 1.41203e-05 -8.25658e-07
2.81169e-06 -1.74795e-08 -7.39138e-07
-8.50204e-08 1.32902e-05 -8.20373e-07
2.88026e-06 -1.72546e-08 -7.6063e-07
-9.17048e-08 1.38998e-05 -8.31697e-07
-6.98829e-08 1.39743e-05 -8.02629e-07
-7.64504e-08 1.32149e-05 -8.0757e-07
2.95376e-06 -1.70683e-08 -7.84721e-07
-9.58544e-08 1.31397e-05 -8.20106e-07
3.02816e-06 -1.68365e-08 -8.1161e-07
-6.64244e-08 1.40482e-05 -7.9504e-07
3.02838e-06 -2.10845e-08 -4.48554e-07
3.10335e-06 -2.08874e-08 -4.67265e-07
3.18182e-06 -2.03226e-08 -4.77773e-07
3.26557e-06 -1.97867e-08 -4.93769e-07
3.34862e-06 -1.92471e-08 -5.12505e-07
-9.47602e-08 1.38228e-05 -8.43351e-07
-1.07365e-07 1.30635e-05 -8.25666e-07
2.70978e-06 -1.45256e-08 -1.06887e-06
2.6441e-06 -1.45927e-08 -1.03337e-06
2.58236e-06 -1.48319e-08 -9.96938e-07
3.10753e-06 -1.64681e-08 -8.40979e-07
3.43796e-06 -1.84843e-08 -5.31591e-07
2.78395e-06 -1.4401e-08 -1.10367e-06
-7.78422e-08 1.37427e-05 -8.58359e-07
-9.49255e-08 1.29848e-05 -8.45548e-07
3.19517e-06 -1.63625e-08 -8.70046e-07
2.86661e-06 -1.36181e-08 -1.13618e-06
3.53595e-06 -1.70744e-08 -5.50814e-07
-6.71131e-08 1.36622e-05 -8.67838e-07
-8.33042e-08 1.29055e-05 -8.59392e-07
2.95343e-06 -1.22817e-08 -1.17132e-06
-7.63268e-08 1.35809e-05 -8.85322e-07
3.03467e-06 -1.07498e-08 -1.21576e-06
-3.59947e-08 1.34955e-05 -8.52699e-07
3.12852e-06 -1.04161e-08 -1.26468e-06
-8.88141e-09 1.34075e-05 -8.0742e-07
3.22115e-06 -9.36676e-09 -1.3174e-06
3.32621e-06 -8.38057e-09 -1.37956e-06
-8.51266e-09 1.33169e-05 -7.84011e-07
3.29596e-06 -1.55477e-08 -8.9817e-07
3.6458e-06 -1.54733e-08 -5.70852e-07
3.51311e-06 -1.21179e-08 -9.65184e-07
3.62522e-06 -9.00003e-09 -1.01108e-06
3.75418e-06 -5.53973e-09 -1.06339e-06
3.39951e-06 -1.42669e-08 -9.25241e-07
-1.06014e-07 1.28285e-05 -9.09293e-07
3.77245e-06 -1.36838e-08 -5.74726e-07
-1.17969e-07 1.27492e-05 -9.28855e-07
-8.13423e-08 1.26692e-05 -8.88784e-07
-8.46296e-08 1.2584e-05 -8.82123e-07
3.92718e-06 -1.23231e-08 -5.72176e-07
4.07666e-06 -1.09605e-08 -5.84592e-07
4.24225e-06 -9.65024e-09 -6.13561e-07
-2.16584e-08 1.32081e-05 -8.45702e-07
-2.00058e-07 1.91751e-05 -1.16117e-06
3.4787e-06 -7.34628e-09 -1.457e-06
-4.50222e-08 1.30918e-05 -8.76482e-07
-1.57052e-07 1.90438e-05 -1.13944e-06
-1.4771e-07 1.8912e-05 -1.14689e-06
3.60368e-06 -4.72636e-09 -1.50904e-06
-3.73897e-08 1.29736e-05 -8.67814e-07
3.70552e-06 -4.43359e-11 -1.5569e-06
3.9369e-06 -3.21865e-09 -1.13608e-06
4.08467e-06 -1.2813e-09 -1.18741e-06
4.21206e-06 2.68789e-09 -1.22637e-06
-7.11699e-08 1.24924e-05 -8.53485e-07
4.4727e-06 -9.48337e-09 -6.55563e-07
-6.12826e-08 1.23859e-05 -8.40849e-07
-4.03387e-08 1.22674e-05 -8.44764e-07
4.63411e-06 -6.73745e-09 -7.17943e-07
4.79309e-06 -3.12683e-09 -7.4352e-07
-1.91649e-07 1.92918e-05 -1.12394e-06
-1.71655e-07 1.80122e-05 -1.1396e-06
1.92147e-06 -1.33095e-08 -3.3788e-09
1.83817e-06 -1.24311e-08 -6.01344e-08
-1.65732e-07 1.7965e-05 -1.15143e-06
1.96798e-06 -1.3881e-08 -4.41717e-09
1.88425e-06 -1.29896e-08 -6.48494e-08
-1.99167e-07 1.60109e-05 -1.06183e-06
-2.05456e-07 1.60566e-05 -1.05675e-06
-1.97906e-07 1.61014e-05 -1.03999e-06
-1.61842e-07 1.79154e-05 -1.15529e-06
2.01733e-06 -1.43201e-08 2.80837e-09
1.9326e-06 -1.34345e-08 -5.68038e-08
-1.65458e-07 1.7867e-05 -1.13419e-06
1.98391e-06 -1.38223e-08 -5.00614e-08
2.07075e-06 -1.49093e-08 8.95809e-09
2.02826e-06 -1.42858e-08 -5.38842e-08
-1.61898e-07 1.7818e-05 -1.11838e-06
2.12337e-06 -1.54509e-08 1.3551e-08
-1.88482e-07 1.61449e-05 -1.04105e-06
-1.83844e-07 1.61883e-05 -1.02077e-06
2.0956e-06 -1.40069e-08 6.47537e-08
-1.59645e-07 1.89876e-05 -1.20889e-06
2.02403e-06 -1.47314e-08 8.49439e-08
-8.73486e-08 1.76227e-05 -1.16955e-06
-1.54941e-07 1.89401e-05 -1.21072e-06
-1.53464e-07 1.88904e-05 -1.22015e-06
-1.56608e-07 1.884e-05 -1.20522e-06
-1.46276e-07 1.87871e-05 -1.21719e-06
-1.41465e-07 1.87649e-05 -1.25546e-06
2.07558e-06 -1.52748e-08 9.00644e-08
2.14897e-06 -1.4296e-08 7.56647e-08
-1.36631e-07 1.87165e-05 -1.23704e-06
-7.47665e-08 1.75767e-05 -1.1792e-06
2.12727e-06 -1.58893e-08 9.76913e-08
2.20116e-06 -1.4761e-08 8.10996e-08
-1.25742e-07 1.86649e-05 -1.23021e-06
-7.12496e-08 1.75301e-05 -1.19026e-06
2.18285e-06 -1.65839e-08 1.01442e-07
2.23756e-06 -1.72733e-08 1.07022e-07
2.25741e-06 -1.54138e-08 8.68457e-08
-1.19825e-07 1.8615e-05 -1.2347e-06
-6.19246e-08 1.74809e-05 -1.19514e-06
2.31231e-06 -1.59726e-08 9.02238e-08
-1.89321e-07 1.59635e-05 -1.08292e-06
-1.51273e-07 1.77665e-05 -1.14842e-06
2.07059e-06 -1.46888e-08 -6.65888e-08
2.17689e-06 -1.59456e-08 1.51025e-08
-1.7955e-07 1.59165e-05 -1.05542e-06
-1.4603e-07 1.7718e-05 -1.14782e-06
-1.6924e-07 1.57716e-05 -9.93458e-07
-1.71978e-07 1.582e-05 -9.9206e-07
-1.70796e-07 1.58687e-05 -1.02117e-06
2.11781e-06 -1.52279e-08 -7.26571e-08
2.22997e-06 -1.64912e-08 2.11399e-08
-1.00417e-07 1.76635e-05 -1.10767e-06
2.16525e-06 -1.56992e-08 -8.61014e-08
2.2855e-06 -1.69703e-08 2.43423e-08
2.20816e-06 -1.6304e-08 -1.0169e-07
-7.6906e-08 1.7611e-05 -1.0697e-06
2.33742e-06 -1.73958e-08 3.0115e-08
-6.88598e-08 1.75571e-05 -1.06758e-06
-1.41502e-07 1.87352e-05 -1.22144e-06
-1.14985e-07 1.85634e-05 -1.23568e-06
-6.11966e-08 1.7432e-05 -1.18432e-06
2.29098e-06 -1.80045e-08 1.13928e-07
2.36492e-06 -1.6571e-08 9.40848e-08
-1.21112e-07 1.86812e-05 -1.20315e-06
-1.05348e-07 1.8627e-05 -1.18015e-06
-8.31078e-08 1.857e-05 -1.15378e-06
-7.93403e-08 1.85151e-05 -1.15413e-06
-1.03663e-07 1.85115e-05 -1.23137e-06
-5.50794e-08 1.7384e-05 -1.16748e-06
2.34401e-06 -1.87459e-08 1.25413e-07
2.41884e-06 -1.72396e-08 9.97539e-08
-9.78555e-08 1.84593e-05 -1.21894e-06
-4.84348e-08 1.73338e-05 -1.14763e-06
2.4015e-06 -1.95281e-08 1.36341e-07
2.45738e-06 -2.03662e-08 1.47572e-07
2.47722e-06 -1.79555e-08 1.05861e-07
-8.41806e-08 1.8405e-05 -1.18996e-06
-3.53503e-08 1.72802e-05 -1.12747e-06
2.53024e-06 -1.86921e-08 1.1245e-07
-7.68805e-08 1.83499e-05 -1.1784e-06
-3.07698e-08 1.72273e-05 -1.1264e-06
2.16528e-06 -1.273e-08 3.78989e-08
2.22297e-06 -1.06176e-08 1.97956e-08
-4.83393e-08 1.59156e-05 -1.05094e-06
-5.31901e-08 1.40301e-05 -9.58094e-07
2.22032e-06 -1.31732e-08 4.15349e-08
2.28009e-06 -1.11309e-08 2.0016e-08
-5.22971e-08 1.3992e-05 -9.6194e-07
-3.57789e-08 1.58712e-05 -1.06065e-06
2.27418e-06 -1.34811e-08 4.82728e-08
2.33071e-06 -1.38357e-08 5.18273e-08
2.38578e-06 -1.40995e-08 5.48797e-08
2.33538e-06 -1.14667e-08 2.28057e-08
-4.27791e-08 1.39504e-05 -9.71434e-07
-3.31663e-08 1.58279e-05 -1.0705e-06
2.3957e-06 -1.19024e-08 2.3236e-08
-2.92614e-08 1.57839e-05 -1.07619e-06
-3.41204e-08 1.39083e-05 -9.7719e-07
2.45554e-06 -1.23037e-08 2.36035e-08
2.27754e-06 -9.85462e-09 1.86261e-08
2.33104e-06 -8.43888e-09 5.98953e-09
2.3837e-06 -7.19599e-09 2.06411e-10
-2.55277e-08 1.22263e-05 -8.37527e-07
-1.18068e-08 1.06278e-05 -7.25535e-07
2.33325e-06 -1.01704e-08 1.97629e-08
2.38896e-06 -1.0466e-08 2.31794e-08
2.44921e-06 -1.08504e-08 2.54354e-08
2.50874e-06 -1.11865e-08 2.79133e-08
2.38758e-06 -8.64299e-09 7.21617e-09
2.44064e-06 -7.38554e-09 8.9522e-10