# vtk DataFile Version 3.0
vtk output
ASCII
DATASET POLYDATA
POINTS 18988 float
0.139899 0.950309 -0.0516046
0.140082 0.940309 -0.0511068
0.140277 0.930318 -0.0505471
0.129342 0.955406 -0.0503604
0.140447 0.920324 -0.050004
0.129516 0.945416 -0.0499049
0.140566 0.910326 -0.0495309
0.129725 0.93542 -0.0493522
0.140781 0.900332 -0.0489377
0.129948 0.925424 -0.0487972
0.140985 0.890339 -0.0483657
0.130167 0.915433 -0.0482265
0.119165 0.950513 -0.0481424
0.172554 0.895015 -0.0508487
0.193941 0.894841 -0.0508051
0.204527 0.899749 -0.0509124
0.18335 0.889937 -0.050552
0.204657 0.88976 -0.0502595
0.172745 0.885029 -0.0501733
0.18351 0.879945 -0.0498904
0.194109 0.884855 -0.0501173
0.162015 0.890117 -0.0501225
0.151323 0.89522 -0.0497763
0.172921 0.875035 -0.0495442
0.194241 0.874862 -0.0494684
0.162194 0.880123 -0.0494965
0.20479 0.879773 -0.0495821
0.183689 0.869954 -0.0492453
0.183842 0.859964 -0.048612
0.151612 0.88523 -0.0489583
0.173091 0.86505 -0.0489363
0.194371 0.864876 -0.0488402
0.162389 0.870131 -0.048891
0.204911 0.869782 -0.0489488
0.173253 0.855056 -0.0483471
0.1945 0.854882 -0.0482292
0.162555 0.86014 -0.0483272
0.151828 0.875229 -0.0482958
0.246397 0.899417 -0.0507065
0.215179 0.894664 -0.0504122
0.236107 0.8945 -0.0503002
0.256766 0.894353 -0.0503217
0.225651 0.899578 -0.0505909
0.22576 0.889589 -0.0499527
0.246482 0.889435 -0.0500535
0.215327 0.884681 -0.0496908
0.236216 0.884516 -0.0496525
0.256834 0.884371 -0.0496748
0.21543 0.874689 -0.0490606
0.236295 0.874525 -0.0490355
0.256896 0.874381 -0.0490367
0.246556 0.879446 -0.049421
0.225873 0.879602 -0.0492974
0.225961 0.869608 -0.0487066
0.246625 0.869455 -0.0487892
0.205028 0.859792 -0.0483211
0.215537 0.8647 -0.048464
0.236372 0.864537 -0.0484359
0.256953 0.864393 -0.0484178
0.183171 0.899922 -0.0512396
0.193777 0.904835 -0.0514484
0.161783 0.900103 -0.0508095
0.151116 0.90522 -0.0503646
0.183015 0.909917 -0.0518581
0.204382 0.909737 -0.0515702
0.161577 0.910101 -0.051404
0.172382 0.90501 -0.0514589
0.150386 0.955196 -0.0530411
0.150556 0.945203 -0.0525029
0.150693 0.935208 -0.0520191
0.150853 0.92521 -0.0514411
0.150967 0.915213 -0.0509272
0.172232 0.914997 -0.0520418
0.193636 0.914822 -0.0520971
0.18284 0.919902 -0.052519
0.16137 0.920092 -0.0520036
0.20426 0.919728 -0.052199
0.193486 0.924807 -0.0527616
0.17207 0.924989 -0.0526278
0.161262 0.930093 -0.0525412
0.182653 0.92989 -0.0531613
0.204128 0.929716 -0.0528389
0.171839 0.93498 -0.0532563
0.193349 0.934798 -0.0533933
0.161117 0.940086 -0.0531329
0.182498 0.939881 -0.0537925
0.204007 0.939707 -0.053469
0.16095 0.950086 -0.0537538
0.193191 0.94478 -0.0540423
0.171659 0.944972 -0.0538899
0.182314 0.949866 -0.0544529
0.203877 0.94969 -0.0541247
0.171461 0.954964 -0.0545202
0.193045 0.954774 -0.054681
0.215032 0.904654 -0.0511026
0.236004 0.904492 -0.0509247
0.256698 0.904344 -0.0509366
0.225522 0.909564 -0.05126
0.2463 0.909408 -0.0513612
0.214917 0.914643 -0.0517275
0.235912 0.914479 -0.0515359
0.256624 0.91433 -0.0515798
0.246231 0.919391 -0.0519677
0.225414 0.919553 -0.0518863
0.214797 0.924627 -0.0523804
0.235816 0.924467 -0.0521517
0.256554 0.924316 -0.0522072
0.225293 0.929537 -0.0525591
0.24615 0.929383 -0.0525855
0.214693 0.934618 -0.0529964
0.23573 0.934451 -0.0527844
0.256493 0.934301 -0.0528305
0.214582 0.944601 -0.0536319
0.214476 0.954595 -0.0542584
0.246078 0.939366 -0.0532093
0.225195 0.939527 -0.0531894
0.235639 0.944438 -0.0534118
0.256422 0.944285 -0.0534592
0.225079 0.949508 -0.0538694
0.245988 0.949353 -0.0538426
0.235537 0.954423 -0.0540656
0.256346 0.954271 -0.0540927
0.266966 0.899278 -0.0505841
0.267019 0.889288 -0.049971
0.287396 0.899165 -0.0509695
0.307831 0.899083 -0.050983
0.287468 0.889177 -0.0503523
0.307886 0.889094 -0.0503826
0.277197 0.894223 -0.0504025
0.297656 0.894134 -0.0506578
0.318069 0.894049 -0.0507421
0.29772 0.884149 -0.0500256
0.318119 0.884064 -0.0500954
0.287571 0.8792 -0.0497215
0.307965 0.879114 -0.0497519
0.277315 0.884247 -0.0497908
0.267065 0.879304 -0.0493377
0.287637 0.869212 -0.0490782
0.308021 0.869126 -0.0491164
0.277393 0.87426 -0.049167
0.2978 0.874169 -0.0493987
0.318177 0.874083 -0.0494539
0.267154 0.869317 -0.0487192
0.297857 0.864179 -0.0487936
0.318224 0.864092 -0.0488304
0.287727 0.859236 -0.0484422
0.30809 0.85915 -0.0484655
0.277505 0.864279 -0.0485923
0.32818 0.898989 -0.0511927
0.348489 0.898894 -0.0513155
0.368752 0.898831 -0.0514859
0.338342 0.893943 -0.0509847
0.358638 0.893871 -0.0510753
0.378909 0.893817 -0.051167
0.378929 0.883835 -0.050486
0.328217 0.888998 -0.0505712
0.348529 0.888914 -0.0506621
0.368777 0.88885 -0.0508324
0.348565 0.87893 -0.0500131
0.368803 0.878866 -0.0501816
0.338396 0.883966 -0.0503144
0.358669 0.883894 -0.0504001
0.358701 0.873905 -0.0497607
0.378942 0.873852 -0.0498257
0.328278 0.879019 -0.0498986
0.338434 0.87398 -0.0496663
0.358722 0.86392 -0.0491227
0.378955 0.863868 -0.0491805
0.328321 0.869031 -0.0492396
0.348602 0.86895 -0.0493522
0.368824 0.868886 -0.0495193
0.348634 0.858968 -0.0487015
0.368849 0.858905 -0.0488602
0.338478 0.863998 -0.0490287
0.368878 0.848916 -0.0482337
0.338523 0.854015 -0.0483755
0.358753 0.853944 -0.0484558
0.378969 0.853892 -0.0485084
0.328375 0.859055 -0.0485711
0.297567 0.904116 -0.0512869
0.318005 0.904031 -0.0513675
0.277115 0.904211 -0.0510082
0.266903 0.909264 -0.0512221
0.287289 0.909145 -0.0515972
0.307749 0.909063 -0.0516259
0.266845 0.91925 -0.0518369
0.266795 0.929233 -0.0524725
0.266741 0.939223 -0.0530742
0.266682 0.949205 -0.0537082
0.276992 0.914189 -0.0516354
0.297493 0.914105 -0.0519311
0.317946 0.91402 -0.0520102
0.287211 0.919129 -0.0522085
0.307692 0.919047 -0.052264
0.297401 0.924079 -0.0525937
0.317878 0.923996 -0.0526734
0.276913 0.924169 -0.0522446
0.287109 0.929105 -0.0528418
0.307621 0.929023 -0.0529026
0.276841 0.93415 -0.0528481
0.31781 0.933974 -0.0533191
0.297337 0.934066 -0.0532261
0.287038 0.939094 -0.0534318
0.307562 0.939011 -0.0535032
0.276801 0.944134 -0.0534635
0.297251 0.94404 -0.0538598
0.31776 0.943956 -0.0539664
0.307478 0.948989 -0.0541599
0.286966 0.949079 -0.05401
0.276752 0.95412 -0.0540874
0.297178 0.954029 -0.0544657
0.317706 0.953945 -0.0545834
0.378894 0.903796 -0.0518386
0.338299 0.90393 -0.0516148
0.35861 0.903858 -0.0517099
0.328119 0.90897 -0.0518462
0.348446 0.908882 -0.0519589
0.368721 0.908818 -0.0521294
0.338238 0.913911 -0.0522702
0.378873 0.913779 -0.0524978
0.358573 0.913839 -0.0523603
0.32807 0.918957 -0.0524911
0.368697 0.918795 -0.0527775
0.348408 0.918867 -0.0525902
0.378856 0.92376 -0.0531564
0.338192 0.923895 -0.05292
0.358537 0.923823 -0.0529985
0.328014 0.928935 -0.0531472
0.348366 0.928843 -0.0532553
0.368671 0.928778 -0.0534211
0.327974 0.938924 -0.0537689
0.327916 0.948902 -0.0544329
0.338139 0.933873 -0.0535886
0.358504 0.9338 -0.0536487
0.378836 0.933744 -0.0537989
0.368647 0.938759 -0.0540569
0.34833 0.938831 -0.0538623
0.378822 0.943719 -0.0544676
0.3381 0.943857 -0.0542562
0.358476 0.943783 -0.0542783
0.348286 0.948808 -0.05452
0.368623 0.948743 -0.0546974
0.338047 0.953837 -0.05493
0.35844 0.953764 -0.0549136
0.3788 0.953707 -0.055098
0.368598 0.958725 -0.055331
0.388953 0.898781 -0.0514078
0.409208 0.898745 -0.0515195
0.429434 0.898719 -0.0514939
0.40922 0.888758 -0.0508764
0.42944 0.888732 -0.0508601
0.399125 0.893775 -0.0511361
0.419334 0.893739 -0.0512475
0.439522 0.89372 -0.0511464
0.399143 0.883794 -0.0504645
0.419344 0.883757 -0.0505801
0.439525 0.883739 -0.050475
0.389005 0.888802 -0.0507584
0.389037 0.878821 -0.0500943
0.409242 0.878782 -0.0502082
0.429442 0.878756 -0.0501951
0.409254 0.868797 -0.0495663
0.429445 0.868771 -0.0495507
0.399174 0.873812 -0.0498176
0.419357 0.873776 -0.0499321
0.43952 0.873757 -0.0498233
0.399189 0.863827 -0.0491797
0.419364 0.863792 -0.0492908
0.439521 0.863773 -0.0491781
0.389085 0.868842 -0.0494448
0.389115 0.858861 -0.0487887
0.409275 0.858823 -0.0489049
0.429451 0.858797 -0.0488853
0.409292 0.848835 -0.048276
0.42946 0.848809 -0.0482566
0.399223 0.853852 -0.0485229
0.41938 0.853816 -0.0486349
0.439518 0.853798 -0.0485194
0.449609 0.898696 -0.0515118
0.469782 0.898684 -0.0514858
0.489939 0.898684 -0.0514241
0.449611 0.888709 -0.0508759
0.459689 0.893696 -0.0512702
0.479849 0.893694 -0.0511235
0.459689 0.883715 -0.0506001
0.479841 0.883713 -0.0504546
0.46976 0.888705 -0.0508395
0.489902 0.888704 -0.0507812
0.449605 0.878734 -0.0502099
0.469756 0.878722 -0.0501795
0.489891 0.878721 -0.050121
0.449606 0.868749 -0.0495609
0.459676 0.873734 -0.0499491
0.479811 0.873731 -0.0498048
0.459672 0.86375 -0.0493053
0.479801 0.863747 -0.0491605
0.469734 0.868743 -0.0495265
0.489855 0.868742 -0.0494689
0.449604 0.858775 -0.0488948
0.469732 0.858764 -0.0488667
0.489845 0.858762 -0.0488103
0.449613 0.848787 -0.0482679
0.469731 0.848776 -0.0482385
0.459664 0.853775 -0.0486474
0.479775 0.853772 -0.0485046
0.399095 0.903753 -0.0517898
0.419323 0.903718 -0.0518867
0.439526 0.903699 -0.0517926
0.409184 0.908724 -0.0521835
0.388917 0.908767 -0.0520619
0.429427 0.908705 -0.0521525
0.399076 0.913737 -0.0524433
0.419313 0.913701 -0.0525475
0.439522 0.913682 -0.0524585
0.388869 0.918744 -0.052703
0.409169 0.918708 -0.0528225
0.429424 0.918681 -0.0528091
0.399045 0.923717 -0.0530896
0.419303 0.923681 -0.0531975
0.439526 0.923662 -0.053108
0.40915 0.928684 -0.0534805
0.429421 0.928657 -0.0534767
0.388836 0.928727 -0.0533485
0.399026 0.933701 -0.0537274
0.419296 0.933666 -0.0538445
0.439524 0.933646 -0.0537581
0.388841 0.938707 -0.0539903
0.409138 0.938671 -0.0541054
0.429416 0.938644 -0.0541032
0.398994 0.943675 -0.0543841
0.419285 0.94364 -0.0545051
0.439529 0.94362 -0.0544228
0.388836 0.948691 -0.0546392
0.409125 0.948655 -0.0547553
0.429407 0.948628 -0.0547536
0.398973 0.953661 -0.0550112
0.419275 0.953628 -0.0551301
0.439524 0.953608 -0.0550518
0.38884 0.958673 -0.055276
0.409105 0.958635 -0.0553854
0.429405 0.958608 -0.0553789
0.459701 0.903675 -0.0519197
0.479876 0.903673 -0.0517679
0.449602 0.908682 -0.0521697
0.469783 0.90867 -0.0521441
0.489948 0.90867 -0.0520806
[...]
POINT_DATA 18988
VECTORS alpha float
1.25993e-06 -1.01724e-08 -1.71187e-08
1.23542e-06 -9.92716e-09 -1.31225e-08
1.2103e-06 -9.67395e-09 -9.3359e-09
-3.48694e-07 1.68218e-05 -1.07978e-06
1.18663e-06 -9.43551e-09 -6.2103e-09
-3.55822e-07 1.68464e-05 -1.08281e-06
1.16245e-06 -9.13923e-09 -9.66596e-10
-3.37103e-07 1.68712e-05 -1.03928e-06
1.13972e-06 -8.87247e-09 6.11493e-10
-3.26763e-07 1.68947e-05 -1.04476e-06
1.11568e-06 -8.59184e-09 3.52308e-09
-3.33646e-07 1.69194e-05 -1.05306e-06
1.17412e-06 -8.74318e-09 -1.14501e-07
-2.61197e-07 1.9823e-05 -1.29683e-06
-2.10708e-07 1.96262e-05 -1.32323e-06
1.27152e-06 -9.19902e-09 6.95984e-08
1.21234e-06 -9.09813e-09 7.85014e-08
1.24413e-06 -8.86684e-09 6.73023e-08
-2.48126e-07 1.98482e-05 -1.28193e-06
1.18854e-06 -8.83371e-09 7.58899e-08
-1.9748e-07 1.96508e-05 -1.31329e-06
1.17164e-06 -9.20686e-09 6.04977e-08
-2.9531e-07 1.88338e-05 -1.18217e-06
-2.52279e-07 1.98733e-05 -1.29809e-06
-1.94446e-07 1.96747e-05 -1.31081e-06
1.14823e-06 -8.94464e-09 5.91924e-08
1.21954e-06 -8.65075e-09 6.43694e-08
1.16145e-06 -8.52946e-09 7.33371e-08
1.13708e-06 -8.2264e-09 7.21186e-08
-2.79492e-07 1.8859e-05 -1.1456e-06
-2.55339e-07 1.98972e-05 -1.28676e-06
-1.96804e-07 1.96985e-05 -1.30092e-06
1.12176e-06 -8.64389e-09 5.79725e-08
1.19189e-06 -8.35178e-09 6.23525e-08
-2.46771e-07 1.992e-05 -1.28528e-06
-1.89904e-07 1.97212e-05 -1.30356e-06
1.09836e-06 -8.33573e-09 5.8452e-08
-2.94547e-07 1.88839e-05 -1.18932e-06
1.32734e-06 -7.64058e-09 4.13276e-08
-1.49703e-07 1.8441e-05 -1.24756e-06
-1.07405e-07 1.6675e-05 -1.11321e-06
-7.29609e-08 1.47191e-05 -9.97303e-07
1.29755e-06 -8.5892e-09 4.72141e-08
1.26875e-06 -8.27713e-09 4.58964e-08
1.29781e-06 -7.414e-09 3.9215e-08
-1.39314e-07 1.84645e-05 -1.24037e-06
-1.02282e-07 1.66966e-05 -1.11369e-06
-7.31796e-08 1.47391e-05 -9.97657e-07
-1.42173e-07 1.84877e-05 -1.23777e-06
-1.02249e-07 1.67176e-05 -1.12186e-06
-7.1737e-08 1.47586e-05 -9.96543e-07
1.27268e-06 -7.2313e-09 3.84165e-08
1.24438e-06 -8.09146e-09 4.44963e-08
1.21684e-06 -7.75794e-09 4.46688e-08
1.24492e-06 -6.98221e-09 3.75726e-08
1.16714e-06 -8.04946e-09 6.12441e-08
-1.47546e-07 1.85095e-05 -1.23744e-06
-1.06286e-07 1.67381e-05 -1.12665e-06
-7.46644e-08 1.47771e-05 -9.93508e-07
1.23974e-06 -9.40127e-09 8.07682e-08
-2.20481e-07 1.96031e-05 -1.31254e-06
1.1985e-06 -9.49249e-09 6.25952e-08
-2.97786e-07 1.88094e-05 -1.17829e-06
1.26553e-06 -9.76248e-09 8.21939e-08
1.29694e-06 -9.44109e-09 7.20954e-08
1.22277e-06 -9.76235e-09 6.27996e-08
-2.59825e-07 1.97992e-05 -1.27725e-06
-3.6088e-07 1.86793e-05 -1.21693e-06
-3.48847e-07 1.87057e-05 -1.19606e-06
-3.21179e-07 1.87336e-05 -1.14821e-06
-2.97907e-07 1.87586e-05 -1.16532e-06
-3.07526e-07 1.8785e-05 -1.20208e-06
-2.65366e-07 1.97745e-05 -1.29686e-06
-2.20072e-07 1.95782e-05 -1.32531e-06
1.29417e-06 -1.0126e-08 8.49208e-08
1.2511e-06 -1.00702e-08 6.2345e-08
1.32511e-06 -9.76251e-09 7.45717e-08
-2.10023e-07 1.9552e-05 -1.32489e-06
-2.53926e-07 1.97482e-05 -1.28305e-06
1.27478e-06 -1.03431e-08 5.94958e-08
1.32095e-06 -1.04446e-08 8.6596e-08
1.35187e-06 -1.00223e-08 7.65038e-08
-2.51521e-07 1.97219e-05 -1.27744e-06
-2.11467e-07 1.95263e-05 -1.33138e-06
1.30115e-06 -1.06083e-08 5.71906e-08
1.34998e-06 -1.08118e-08 8.82536e-08
1.38076e-06 -1.03432e-08 7.84128e-08
1.32776e-06 -1.09292e-08 5.55375e-08
-2.12873e-07 1.94992e-05 -1.32225e-06
-2.49117e-07 1.96925e-05 -1.2898e-06
1.37892e-06 -1.11743e-08 9.01699e-08
1.40985e-06 -1.06422e-08 8.02952e-08
-2.45966e-07 1.9665e-05 -1.29084e-06
-2.15216e-07 1.94724e-05 -1.30808e-06
-1.54845e-07 1.84189e-05 -1.22825e-06
-1.10381e-07 1.66541e-05 -1.10577e-06
-7.18261e-08 1.46999e-05 -9.85405e-07
1.32397e-06 -8.78888e-09 4.8961e-08
1.35323e-06 -7.85609e-09 4.2632e-08
-1.52271e-07 1.83959e-05 -1.22762e-06
-1.08468e-07 1.66325e-05 -1.10871e-06
-7.27183e-08 1.46808e-05 -9.80695e-07
1.38347e-06 -8.0972e-09 4.40999e-08
1.35309e-06 -9.09714e-09 5.05276e-08
-1.47898e-07 1.83713e-05 -1.2314e-06
-1.078e-07 1.66094e-05 -1.11535e-06
-7.15186e-08 1.46596e-05 -9.77764e-07
1.37999e-06 -9.31477e-09 5.2135e-08
1.41135e-06 -8.38235e-09 4.45979e-08
-1.46384e-07 1.83472e-05 -1.23097e-06
-1.03455e-07 1.65872e-05 -1.11767e-06
-7.05065e-08 1.46392e-05 -9.84118e-07
-1.48242e-07 1.8322e-05 -1.23498e-06
-1.4859e-07 1.82974e-05 -1.22318e-06
1.44132e-06 -8.62322e-09 4.55904e-08
1.40887e-06 -9.59419e-09 5.36247e-08
-1.04038e-07 1.65631e-05 -1.1153e-06
-7.52164e-08 1.46174e-05 -9.89655e-07
1.43797e-06 -9.834e-09 5.5645e-08
1.47063e-06 -8.92557e-09 4.66084e-08
-1.00365e-07 1.65401e-05 -1.1083e-06
-7.78884e-08 1.45965e-05 -9.8618e-07
1.35751e-06 -6.83446e-09 2.86428e-08
1.32829e-06 -6.58565e-09 2.81183e-08
1.3839e-06 -5.55559e-09 2.47849e-08
1.41143e-06 -4.99703e-09 2.26364e-08
1.3542e-06 -5.37332e-09 2.53654e-08
1.38141e-06 -4.81848e-09 2.34025e-08
-3.24301e-08 1.28483e-05 -8.71061e-07
-1.76805e-08 1.11896e-05 -7.75608e-07
-1.91342e-08 9.75622e-06 -6.88294e-07
-1.69447e-08 1.12057e-05 -7.70173e-07
-1.74069e-08 9.77062e-06 -6.87736e-07
1.328e-06 -5.26644e-09 2.57138e-08
1.35498e-06 -4.72786e-09 2.3727e-08
-3.38417e-08 1.28661e-05 -8.69182e-07
1.30304e-06 -6.42139e-09 2.74996e-08
1.29932e-06 -5.11269e-09 2.53736e-08
1.32595e-06 -4.57043e-09 2.36347e-08
-3.53412e-08 1.28838e-05 -8.69474e-07
-2.11989e-08 1.1221e-05 -7.68843e-07
-1.86357e-08 9.78456e-06 -6.84164e-07
1.27444e-06 -6.17046e-09 2.74129e-08
-2.33541e-08 1.12357e-05 -7.68358e-07
-1.87268e-08 9.79793e-06 -6.82867e-07
1.27203e-06 -4.96574e-09 2.57679e-08
1.29816e-06 -4.44073e-09 2.35169e-08
-3.93506e-08 1.29007e-05 -8.73009e-07
1.43688e-06 -4.41679e-09 2.30704e-08
1.45707e-06 -3.40702e-09 2.39216e-08
1.47754e-06 -2.79657e-09 2.39132e-08
-1.01952e-08 8.50561e-06 -5.99005e-07
-9.22003e-09 7.37049e-06 -5.14913e-07
-1.38556e-08 6.29632e-06 -4.45165e-07
-1.25457e-08 6.30591e-06 -4.44644e-07
1.40627e-06 -4.27537e-09 2.29366e-08
1.4255e-06 -3.32354e-09 2.35763e-08
1.44577e-06 -2.7513e-09 2.31904e-08
1.39878e-06 -3.21335e-09 2.34055e-08
1.41877e-06 -2.67246e-09 2.2957e-08
-1.05459e-08 8.5181e-06 -5.99973e-07
-9.34104e-09 7.38153e-06 -5.15705e-07
-8.42343e-09 7.39217e-06 -5.15025e-07
-1.1694e-08 6.31504e-06 -4.44687e-07
1.3793e-06 -4.22155e-09 2.23378e-08
-1.10905e-08 8.53055e-06 -5.97926e-07
-1.02525e-08 7.40264e-06 -5.14698e-07
-1.21943e-08 6.32408e-06 -4.45079e-07
1.34961e-06 -4.10304e-09 2.16039e-08
1.36834e-06 -3.15435e-09 2.30385e-08
1.38813e-06 -2.62941e-09 2.24341e-08
1.34005e-06 -3.02924e-09 2.29676e-08
1.35944e-06 -2.5235e-09 2.23658e-08
-1.33507e-08 8.54213e-06 -5.98125e-07
1.32951e-06 -2.42239e-09 2.22108e-08
-1.381e-08 8.55419e-06 -5.97573e-07
-1.16793e-08 7.41318e-06 -5.14452e-07
-1.27386e-08 6.33314e-06 -4.45954e-07
1.32104e-06 -3.974e-09 2.1445e-08
-1.68367e-08 1.11741e-05 -7.67032e-07
-1.86837e-08 9.74283e-06 -6.85394e-07
-3.07051e-08 1.28311e-05 -8.56687e-07
1.38437e-06 -6.963e-09 3.02286e-08
1.41165e-06 -5.68127e-09 2.46221e-08
1.43939e-06 -5.09426e-09 2.2892e-08
1.41434e-06 -7.17936e-09 3.14309e-08
1.44218e-06 -7.32047e-09 3.23915e-08
1.47222e-06 -7.57195e-09 3.26797e-08
1.50189e-06 -7.7669e-09 3.36245e-08
-3.07832e-08 1.28134e-05 -8.47081e-07
-1.70629e-08 1.1158e-05 -7.56244e-07
-1.92206e-08 9.72874e-06 -6.80194e-07
1.44202e-06 -5.83541e-09 2.44893e-08
1.47028e-06 -5.20731e-09 2.3619e-08
-1.3256e-08 1.11411e-05 -7.50068e-07
-1.75963e-08 9.71378e-06 -6.77573e-07
-2.8409e-08 1.27943e-05 -8.41082e-07
1.47132e-06 -5.98587e-09 2.40453e-08
1.4999e-06 -5.31743e-09 2.37418e-08
-2.51929e-08 1.27755e-05 -8.4787e-07
-1.42939e-08 9.69915e-06 -6.75034e-07
-9.96603e-09 1.11238e-05 -7.45705e-07
1.50172e-06 -6.18813e-09 2.27574e-08
1.53052e-06 -5.48564e-09 2.2819e-08
-2.8194e-08 1.2756e-05 -8.58594e-07
-7.86791e-09 1.11063e-05 -7.43291e-07
-1.5356e-08 9.68357e-06 -6.72641e-07
1.56166e-06 -5.57848e-09 2.23249e-08
1.53179e-06 -6.41034e-09 2.13049e-08
-2.85997e-08 1.27372e-05 -8.59831e-07
-7.90996e-09 1.10888e-05 -7.40743e-07
-1.55076e-08 9.66827e-06 -6.69241e-07
-1.38945e-08 6.28726e-06 -4.44712e-07
-1.013e-08 8.49348e-06 -5.99776e-07
-8.90369e-09 7.3598e-06 -5.14698e-07
1.46507e-06 -4.47329e-09 2.36244e-08
1.48529e-06 -3.56138e-09 2.39239e-08
1.506e-06 -2.91981e-09 2.39825e-08
-9.22139e-09 8.48124e-06 -5.96925e-07
-1.40053e-08 6.27744e-06 -4.42045e-07
-8.27885e-09 7.34912e-06 -5.09923e-07
1.49635e-06 -4.5464e-09 2.46214e-08
1.53846e-06 -2.97867e-09 2.44161e-08
1.51703e-06 -3.71728e-09 2.39979e-08
-1.42472e-08 6.2679e-06 -4.38723e-07
-8.27341e-09 8.46785e-06 -5.93989e-07
-7.57118e-09 7.33739e-06 -5.0714e-07
1.52634e-06 -4.6181e-09 2.50844e-08
1.54752e-06 -3.80433e-09 2.41708e-08
1.56862e-06 -3.08951e-09 2.43668e-08
1.55774e-06 -4.78016e-09 2.49638e-08
1.58944e-06 -4.86282e-09 2.52211e-08
-5.30718e-09 8.45495e-06 -5.91092e-07
-5.47167e-09 7.32633e-06 -5.03297e-07
-1.39224e-08 6.25811e-06 -4.37695e-07
1.60141e-06 -3.15901e-09 2.44789e-08
1.57938e-06 -3.97808e-09 2.38605e-08
-1.38809e-08 6.24775e-06 -4.36016e-07
-5.44883e-09 8.44092e-06 -5.89606e-07
-5.34889e-09 7.3141e-06 -5.02241e-07
1.61153e-06 -4.09651e-09 2.40135e-08
1.6331e-06 -3.31566e-09 2.46227e-08
-5.4092e-09 8.42741e-06 -5.89613e-07
-5.79661e-09 7.30242e-06 -5.01895e-07
-1.49921e-08 6.23744e-06 -4.3472e-07
1.66723e-06 -3.42053e-09 2.44481e-08
1.49422e-06 -2.34101e-09 1.47887e-08
1.50636e-06 -1.55873e-09 1.41688e-08
1.51941e-06 -1.29389e-09 1.31269e-08
1.47461e-06 -1.52394e-09 1.38405e-08
1.4875e-06 -1.25954e-09 1.30963e-08
2.69337e-09 5.2467e-06 -3.72386e-07
-9.19804e-10 4.20008e-06 -3.00656e-07
-3.12922e-09 3.15154e-06 -2.26743e-07
2.75989e-09 5.25468e-06 -3.72276e-07
-9.46615e-10 4.2065e-06 -3.00603e-07
-2.96629e-09 3.15638e-06 -2.26777e-07
1.46163e-06 -2.20996e-09 1.41183e-08
1.43399e-06 -2.13652e-09 1.34536e-08
1.44621e-06 -1.50538e-09 1.33676e-08
1.45881e-06 -1.23077e-09 1.28486e-08
1.4153e-06 -1.44855e-09 1.31794e-08
1.42767e-06 -1.19401e-09 1.2643e-08
2.01146e-09 5.26224e-06 -3.72485e-07
-1.20608e-09 4.21258e-06 -3.01033e-07
-2.77623e-09 3.16097e-06 -2.27025e-07
9.44666e-10 5.26974e-06 -3.73266e-07
-1.85819e-09 4.2187e-06 -3.00818e-07
-2.96467e-09 3.1656e-06 -2.26706e-07
1.40234e-06 -2.00851e-09 1.28973e-08
1.37291e-06 -1.91249e-09 1.28508e-08
1.38498e-06 -1.39476e-09 1.30435e-08
1.39707e-06 -1.16814e-09 1.23871e-08
1.35474e-06 -1.35648e-09 1.29615e-08
1.36669e-06 -1.1529e-09 1.21643e-08
2.49129e-11 5.27738e-06 -3.72718e-07
-2.47594e-09 4.22483e-06 -3.00562e-07
-3.16659e-09 3.17021e-06 -2.26607e-07
1.5278e-06 -6.00291e-10 1.18169e-08
1.53364e-06 -1.52019e-10 1.12092e-08
1.53551e-06 6.20653e-11 -1.92814e-09
1.49572e-06 -5.63241e-10 1.17963e-08
-9.47094e-10 2.10121e-06 -1.51559e-07
-4.81023e-10 1.0505e-06 -7.57404e-08
-8.75827e-10 2.10449e-06 -1.5109e-07
-4.33208e-10 1.05213e-06 -7.55562e-08
1.5008e-06 -1.55337e-10 1.07942e-08
1.50266e-06 3.1628e-11 -2.1989e-09
1.46684e-06 -5.43312e-10 1.17284e-08
1.47249e-06 -1.58835e-10 1.05824e-08
1.47433e-06 1.79297e-12 -2.13168e-09
1.43553e-06 -5.27803e-10 1.15949e-08
-9.39046e-10 2.10758e-06 -1.50806e-07
-3.59974e-10 1.05368e-06 -7.54165e-08
-1.08117e-09 2.11068e-06 -1.50531e-07
-3.4424e-10 1.05524e-06 -7.52859e-08
1.44046e-06 -1.76324e-10 1.02822e-08
1.44232e-06 -3.83032e-11 -2.12854e-09
1.40468e-06 -5.06035e-10 1.12766e-08
1.4101e-06 -1.59455e-10 1.00423e-08
1.4119e-06 -4.2654e-11 -2.22166e-09
1.37418e-06 -4.85767e-10 1.12379e-08
1.37954e-06 -1.49545e-10 9.82249e-09
-1.24542e-09 2.11376e-06 -1.5052e-07
-3.59193e-10 1.05678e-06 -7.52819e-08
2.29044e-09 5.23903e-06 -3.72371e-07
-2.65372e-10 4.19402e-06 -2.98601e-07
-2.96072e-09 3.14696e-06 -2.2541e-07
1.5361e-06 -1.60303e-09 1.42944e-08
1.52324e-06 -2.47203e-09 1.5255e-08
1.54879e-06 -1.34679e-09 1.3286e-08
2.2247e-09 5.23076e-06 -3.70357e-07
-9.2863e-11 4.18729e-06 -2.98685e-07
-3.01374e-09 3.1419e-06 -2.25393e-07
1.55664e-06 -2.63777e-09 1.61793e-08
1.56849e-06 -1.62346e-09 1.46053e-08
1.58228e-06 -1.38959e-09 1.38235e-08
2.04457e-09 5.22272e-06 -3.68664e-07
1.68126e-10 4.18089e-06 -2.97079e-07
-3.02569e-09 3.13706e-06 -2.24232e-07
1.6003e-06 -1.65554e-09 1.49254e-08
1.61435e-06 -1.41857e-09 1.42079e-08
1.58757e-06 -2.78294e-09 1.66231e-08
1.91451e-09 5.21448e-06 -3.68381e-07
3.86699e-10 4.17429e-06 -2.97345e-07
-3.10532e-09 3.13209e-06 -2.24528e-07
1.62063e-06 -2.80196e-09 1.72578e-08
1.63305e-06 -1.69568e-09 1.48977e-08
1.6474e-06 -1.45424e-09 1.43897e-08
2.24862e-09 5.20572e-06 -3.67665e-07
3.77023e-10 4.16729e-06 -2.97202e-07
-3.24824e-09 3.12683e-06 -2.24086e-07
1.65264e-06 -2.89653e-09 1.78338e-08
1.66535e-06 -1.74074e-09 1.50922e-08
1.67997e-06 -1.48354e-09 1.4727e-08
1.49617e-09 5.19696e-06 -3.67392e-07
2.47913e-10 4.16031e-06 -2.9699e-07
-3.51062e-09 3.12158e-06 -2.23767e-07
1.68713e-06 -2.9319e-09 1.86703e-08
1.70055e-06 -1.76958e-09 1.5271e-08
1.71541e-06 -1.49718e-09 1.49894e-08
-8.26391e-10 2.09813e-06 -1.50805e-07
-5.06289e-10 1.04895e-06 -7.54157e-08
1.55739e-06 -6.42684e-10 1.19265e-08
1.56338e-06 -1.5941e-10 1.16343e-08
1.56532e-06 6.8374e-11 -1.88724e-09
-7.71497e-10 2.09473e-06 -1.50873e-07
-5.15908e-10 1.04725e-06 -7.54312e-08
1.59103e-06 -6.81565e-10 1.22551e-08
1.59712e-06 -1.5774e-10 1.22962e-08
1.59906e-06 1.02125e-10 -1.77077e-09
-7.49549e-10 2.09152e-06 -1.4985e-07
-5.6137e-10 1.04564e-06 -7.49787e-08
1.62251e-06 -7.21425e-10 1.23118e-08
1.6287e-06 -1.62915e-10 1.25015e-08
1.63068e-06 1.13281e-10 -1.9422e-09
-6.85142e-10 2.08818e-06 -1.49847e-07
-5.99121e-10 1.04396e-06 -7.50116e-08
1.65663e-06 -7.60766e-10 1.25517e-08
1.66288e-06 -1.52135e-10 1.28459e-08
1.66488e-06 1.56658e-10 -1.80933e-09
-6.83936e-10 2.08471e-06 -1.49562e-07
-6.35983e-10 1.04222e-06 -7.48891e-08
1.68948e-06 -8.22756e-10 1.26563e-08
1.69583e-06 -1.80933e-10 1.28969e-08
1.69789e-06 1.58233e-10 -1.84409e-09
-8.36028e-10 2.0812e-06 -1.49005e-07
-7.66763e-10 1.04047e-06 -7.4672e-08
1.7252e-06 -8.48497e-10 1.32295e-08
1.73167e-06 -1.88943e-10 1.31902e-08
1.73381e-06 1.93244e-10 -1.70895e-09
4.49254e-14 1.01621e-10 -7.3504e-12
3.40888e-14 1.01241e-10 -7.29261e-12
-9.3502e-10 -2.10104e-06 1.52138e-07
1.53546e-06 -8.91101e-11 1.77872e-09
1.53366e-06 1.4676e-10 -1.17385e-08
1.52778e-06 6.04589e-10 -1.16618e-08
1.50145e-06 1.36708e-10 -1.14609e-08
1.49566e-06 5.64325e-10 -1.16451e-08
4.31893e-14 1.02088e-10 -7.40246e-12
-4.84584e-10 -1.0503e-06 7.61135e-08
3.8439e-14 1.027e-10 -7.42762e-12
-4.52884e-10 -1.05193e-06 7.60028e-08
-1.02966e-09 -2.10429e-06 1.51996e-07
1.50258e-06 -5.72408e-11 2.0364e-09
-9.66026e-10 -2.10738e-06 1.51502e-07
1.47423e-06 -3.98503e-11 1.89775e-09
1.47247e-06 1.48653e-10 -1.122e-08
1.46678e-06 5.44403e-10 -1.15196e-08
1.44109e-06 1.47016e-10 -1.09711e-08
1.4355e-06 5.28426e-10 -1.13826e-08
2.2002e-14 1.03393e-10 -7.45058e-12
-3.82421e-10 -1.05348e-06 7.58465e-08
1.27795e-14 1.0393e-10 -7.46272e-12
-3.6674e-10 -1.05502e-06 7.56882e-08
-1.21323e-09 -2.11045e-06 1.51351e-07
1.44225e-06 2.83428e-12 1.92219e-09
-1.22912e-09 -2.11352e-06 1.51144e-07
1.41185e-06 7.62221e-12 1.99636e-09
1.41013e-06 1.48052e-10 -1.06239e-08
1.40467e-06 5.05308e-10 -1.11434e-08
1.38125e-06 1.64363e-11 2.08222e-09
1.37954e-06 1.36798e-10 -1.04024e-08
1.37415e-06 4.8407e-10 -1.11941e-08
8.2001e-15 1.04443e-10 -7.4872e-12
-3.80935e-10 -1.05655e-06 7.56671e-08
-8.41859e-10 -4.19996e-06 3.02191e-07
1.51947e-06 1.31923e-09 -1.33735e-08
1.50637e-06 1.55069e-09 -1.42836e-08
1.49423e-06 2.33915e-09 -1.48685e-08
1.48752e-06 1.28113e-09 -1.33386e-08
1.47463e-06 1.51439e-09 -1.39734e-08
-3.10271e-09 -3.15134e-06 2.28086e-07
2.63821e-09 -5.24649e-06 3.72868e-07
-2.99466e-09 -3.15619e-06 2.28013e-07
-1.21753e-09 -4.20634e-06 3.02089e-07
2.67672e-09 -5.25447e-06 3.72767e-07
1.46164e-06 2.20622e-09 -1.42174e-08
-1.14902e-09 -4.21241e-06 3.02072e-07
1.45885e-06 1.25572e-09 -1.31446e-08
1.44624e-06 1.49542e-09 -1.35045e-08
1.43401e-06 2.13313e-09 -1.35543e-08
1.42774e-06 1.21607e-09 -1.28988e-08
1.41533e-06 1.43953e-09 -1.33315e-08
-2.82067e-09 -3.16077e-06 2.28255e-07
1.89455e-09 -5.26204e-06 3.73061e-07
-3.00465e-09 -3.16537e-06 2.27796e-07
-2.03858e-09 -4.21848e-06 3.01928e-07
7.86508e-10 -5.26956e-06 3.73944e-07
1.40236e-06 2.00588e-09 -1.30127e-08
-2.28145e-09 -4.22456e-06 3.01357e-07
1.39716e-06 1.18771e-09 -1.26956e-08
1.38501e-06 1.38633e-09 -1.32134e-08
1.37294e-06 1.91039e-09 -1.29828e-08
1.36677e-06 1.17137e-09 -1.25347e-08
1.35478e-06 1.34805e-09 -1.31241e-08
-3.1973e-09 -3.16995e-06 2.27732e-07
-1.45466e-10 -5.2772e-06 3.73321e-07
-1.05462e-13 1.17708e-10 -8.47455e-12
4.40926e-14 1.01526e-10 -7.31879e-12
4.8152e-14 1.01304e-10 -7.33422e-12
-8.02305e-14 1.02265e-10 -7.36542e-12
-5.12167e-10 -1.04876e-06 7.57593e-08
-9.13033e-10 -2.09793e-06 1.51469e-07
1.5641e-06 1.42274e-10 -1.20971e-08
1.55811e-06 6.32939e-10 -1.20665e-08
1.5653e-06 -8.27595e-11 1.90543e-09
-5.10594e-10 -1.04706e-06 7.57463e-08
-8.19439e-10 -2.09454e-06 1.51526e-07
1.59906e-06 -1.0458e-10 1.86234e-09
1.59712e-06 1.5926e-10 -1.23566e-08
1.59103e-06 6.77041e-10 -1.22816e-08
-5.5883e-10 -1.04544e-06 7.51728e-08
-7.63844e-10 -2.09133e-06 1.5022e-07
1.63067e-06 -1.12961e-10 1.97262e-09
1.62869e-06 1.65116e-10 -1.25024e-08
1.6225e-06 7.18599e-10 -1.23719e-08
-5.9975e-10 -1.04376e-06 7.50908e-08
-6.82882e-10 -2.08798e-06 1.5003e-07
1.66487e-06 -1.54271e-10 1.85063e-09
1.66287e-06 1.5611e-10 -1.284e-08
1.65661e-06 7.60881e-10 -1.25742e-08
-6.33261e-10 -1.04201e-06 7.49332e-08
-6.72465e-10 -2.0845e-06 1.4966e-07
1.69786e-06 -1.55589e-10 1.90151e-09
1.69573e-06 1.8536e-10 -1.28783e-08
1.68931e-06 8.23759e-10 -1.26357e-08
-7.62155e-10 -1.04023e-06 7.47653e-08
-8.24455e-10 -2.08096e-06 1.49239e-07
1.73384e-06 -1.93112e-10 1.77163e-09
1.73177e-06 1.90283e-10 -1.31466e-08
1.72538e-06 8.51164e-10 -1.31486e-08
-3.00071e-09 -3.14677e-06 2.2664e-07
-4.94096e-10 -4.19385e-06 3.002e-07
2.25528e-09 -5.23883e-06 3.72761e-07
1.54959e-06 1.36102e-09 -1.36238e-08
1.53611e-06 1.59425e-09 -1.44002e-08
1.52324e-06 2.47141e-09 -1.53355e-08
-3.07775e-09 -3.14171e-06 2.26438e-07
-3.0905e-10 -4.18712e-06 3.00052e-07
2.19543e-09 -5.23054e-06 3.70727e-07
1.5823e-06 1.39028e-09 -1.40152e-08
1.5685e-06 1.61558e-09 -1.47016e-08
1.55664e-06 2.63332e-09 -1.62511e-08
-3.06302e-09 -3.13687e-06 2.24988e-07
7.49823e-11 -4.18072e-06 2.97976e-07
2.02703e-09 -5.2225e-06 3.69018e-07
1.61434e-06 1.42056e-09 -1.42652e-08
1.60031e-06 1.64793e-09 -1.50015e-08
1.58757e-06 2.77816e-09 -1.6688e-08
-3.12227e-09 -3.13187e-06 2.24969e-07
3.83345e-10 -4.17408e-06 2.97814e-07
1.82349e-09 -5.21428e-06 3.69023e-07
1.64738e-06 1.45871e-09 -1.44192e-08
1.63305e-06 1.69057e-09 -1.49726e-08
1.62062e-06 2.79974e-09 -1.73257e-08
-3.25241e-09 -3.12662e-06 2.24398e-07
3.92774e-10 -4.16709e-06 2.97479e-07
2.17924e-09 -5.20551e-06 3.68219e-07
1.67974e-06 1.48851e-09 -1.47329e-08
1.66508e-06 1.73681e-09 -1.51642e-08
1.65231e-06 2.8952e-09 -1.79028e-08
-3.513e-09 -3.12132e-06 2.24231e-07
2.63193e-10 -4.16006e-06 2.9751e-07
1.42914e-09 -5.19671e-06 3.68027e-07
1.71566e-06 1.502e-09 -1.49584e-08
1.7009e-06 1.76669e-09 -1.5348e-08
1.68756e-06 2.93209e-09 -1.87512e-08
1.47754e-06 2.79679e-09 -2.40182e-08
-1.38633e-08 -6.29612e-06 4.45577e-07
-9.23192e-09 -7.37028e-06 5.15678e-07
-1.00976e-08 -8.50541e-06 5.99525e-07
1.45646e-06 3.46414e-09 -2.37789e-08
1.43692e-06 4.42232e-09 -2.32116e-08
-1.25921e-08 -6.30571e-06 4.45091e-07
1.44578e-06 2.74987e-09 -2.33364e-08
1.4255e-06 3.32748e-09 -2.36812e-08
1.40631e-06 4.28078e-09 -2.30792e-08
1.41879e-06 2.67334e-09 -2.30466e-08
1.39879e-06 3.22007e-09 -2.34637e-08
-9.36458e-09 -7.38132e-06 5.16277e-07
-1.0482e-08 -8.5179e-06 6.00393e-07
-1.17821e-08 -6.31485e-06 4.45235e-07
-8.49669e-09 -7.39198e-06 5.15714e-07
-1.10867e-08 -8.53036e-06 5.98475e-07
1.37936e-06 4.22335e-09 -2.25986e-08
-1.23312e-08 -6.3239e-06 4.45738e-07
-1.03832e-08 -7.40247e-06 5.15508e-07
1.38815e-06 2.63068e-09 -2.25453e-08
1.36835e-06 3.16139e-09 -2.31171e-08
1.34967e-06 4.1054e-09 -2.18693e-08
1.35947e-06 2.52517e-09 -2.24973e-08
1.34007e-06 3.0366e-09 -2.30653e-08
-1.34149e-08 -8.54195e-06 5.98812e-07
1.32954e-06 2.42365e-09 -2.23308e-08
-1.28917e-08 -6.33297e-06 4.4653e-07
-1.18262e-08 -7.41301e-06 5.15181e-07
-1.38979e-08 -8.55404e-06 5.98182e-07