# vtk DataFile Version 3.0
vtk output
ASCII
DATASET POLYDATA
POINTS 23836 float
0.180257 1.04989 -0.0598137
0.169305 1.05501 -0.0597468
0.191058 1.05476 -0.0600673
0.180445 1.0399 -0.0591996
0.169499 1.04502 -0.0591964
0.191222 1.04477 -0.0594707
0.202104 1.04965 -0.0595481
0.158498 1.05014 -0.0588899
0.169715 1.03502 -0.0586175
0.191397 1.03478 -0.0588424
0.202259 1.03966 -0.058906
0.180642 1.02991 -0.0585573
0.158742 1.04015 -0.0582775
0.19156 1.02479 -0.0582145
0.202418 1.02967 -0.0582407
0.147579 1.05528 -0.0581218
0.124497 1.12551 -0.0585014
0.124757 1.11551 -0.0579764
0.180061 1.05988 -0.0604019
0.201926 1.05964 -0.0601899
0.158301 1.06014 -0.0594507
0.169069 1.065 -0.060407
0.190865 1.06475 -0.0607178
0.147325 1.06527 -0.0586791
0.179848 1.06987 -0.0610468
0.201743 1.06963 -0.0608371
0.158069 1.07013 -0.0600769
0.190667 1.07475 -0.0613459
0.168828 1.075 -0.0610505
0.14705 1.07527 -0.0592747
0.179651 1.07987 -0.0616477
0.201566 1.07962 -0.0614619
0.157855 1.08013 -0.0606442
0.168622 1.08499 -0.0616541
0.190478 1.08474 -0.0619692
0.146813 1.08526 -0.0598657
0.135221 1.12038 -0.0601529
0.135488 1.11039 -0.0596044
0.179445 1.08986 -0.0622606
0.201395 1.08961 -0.0620856
0.157638 1.09013 -0.0612125
0.190322 1.09473 -0.0625439
0.16841 1.09499 -0.0622393
0.146564 1.09526 -0.0604545
0.179262 1.09985 -0.0628228
0.168213 1.10498 -0.0627919
0.19015 1.10472 -0.0631381
0.201244 1.0996 -0.0626889
0.157441 1.10012 -0.0616876
0.179078 1.10984 -0.0634325
0.201092 1.10959 -0.0633185
0.157208 1.11012 -0.0622338
0.146334 1.10526 -0.0609657
0.167992 1.11497 -0.0634062
0.189978 1.11471 -0.0637633
0.146108 1.11525 -0.0615104
0.178876 1.11983 -0.0640568
0.200926 1.11958 -0.0639696
0.156951 1.12011 -0.0628551
0.167766 1.12497 -0.064017
0.189787 1.1247 -0.0643861
0.178709 1.12983 -0.0646092
0.200759 1.12957 -0.0646017
0.14586 1.12525 -0.0620104
0.135754 1.10039 -0.0590517
0.136022 1.0904 -0.0585033
0.124222 1.1355 -0.0590081
0.123959 1.1455 -0.0595131
0.123743 1.15549 -0.0599571
0.123527 1.16548 -0.060412
0.123291 1.17548 -0.0609135
0.122974 1.18547 -0.061517
0.122718 1.19547 -0.062
0.112381 1.20058 -0.0593503
0.112611 1.19058 -0.058975
0.112883 1.18059 -0.0585019
0.113146 1.1706 -0.0580429
0.134976 1.13038 -0.0606751
0.156762 1.1301 -0.0633018
0.189612 1.13469 -0.0649775
0.167563 1.13497 -0.0645475
0.145606 1.13524 -0.0625419
0.178526 1.13982 -0.0651825
0.20061 1.13956 -0.0652033
0.156509 1.1401 -0.0638956
0.134703 1.14037 -0.0612366
0.145368 1.14523 -0.0630791
0.167393 1.14496 -0.0650265
0.189442 1.14468 -0.065572
0.134504 1.15037 -0.0617131
0.178389 1.14981 -0.0656821
0.200466 1.14955 -0.065794
0.156309 1.15009 -0.0644285
0.133283 1.20034 -0.0643308
0.145167 1.15523 -0.0635895
0.189297 1.15467 -0.0661344
0.167226 1.15495 -0.065534
0.134289 1.16036 -0.0621926
0.13407 1.17035 -0.062704
0.133794 1.18035 -0.0632935
0.133539 1.19034 -0.0638438
0.178243 1.15981 -0.0662052
0.200332 1.15954 -0.0663697
0.156119 1.16009 -0.0649226
0.144972 1.16522 -0.0640517
0.189149 1.16466 -0.0667202
0.167063 1.16494 -0.0660453
0.178087 1.1698 -0.0667682
0.200183 1.16953 -0.0669791
0.155885 1.17008 -0.0654931
0.144772 1.17522 -0.0645796
0.188987 1.17466 -0.0673136
0.166874 1.17494 -0.0665936
0.155658 1.18007 -0.0660084
0.177936 1.17979 -0.0672765
0.20003 1.17952 -0.0675764
0.144569 1.18521 -0.0651013
0.188827 1.18465 -0.0679
0.166685 1.18493 -0.0671258
0.155453 1.19007 -0.0665812
0.177757 1.18979 -0.0678343
0.199872 1.18951 -0.0681891
0.14434 1.19521 -0.0656293
0.188648 1.19465 -0.0685056
0.166454 1.19492 -0.0677195
0.15519 1.20006 -0.0671659
0.199705 1.1995 -0.0688028
0.177524 1.19978 -0.0684357
0.317128 1.05367 -0.0605908
0.33758 1.05356 -0.0608406
0.337629 1.04358 -0.0601777
0.306927 1.04875 -0.0601244
0.327372 1.04862 -0.0604426
0.347821 1.04852 -0.0605219
0.296637 1.0538 -0.0603442
0.21278 1.05452 -0.0597214
0.234182 1.05432 -0.0597655
0.255181 1.05413 -0.0599028
0.27606 1.05396 -0.0599613
0.327423 1.03864 -0.0597984
0.347867 1.03854 -0.0598703
0.317176 1.04369 -0.0599556
0.286378 1.04889 -0.0598896
0.223605 1.04943 -0.0593937
0.244774 1.04923 -0.0595678
0.265713 1.04905 -0.0595705
0.337673 1.0336 -0.0595188
0.306992 1.03876 -0.0594808
0.296704 1.04382 -0.0597216
0.212932 1.04454 -0.0591451
0.234317 1.04434 -0.0591586
0.255294 1.04415 -0.059252
0.276135 1.04398 -0.0593524
0.327467 1.02866 -0.059147
0.347904 1.02856 -0.0592167
0.28646 1.03891 -0.0592605
0.317223 1.03371 -0.0593173
0.244899 1.03925 -0.0589518
0.265818 1.03907 -0.0589185
0.223757 1.03944 -0.0588015
0.337707 1.02362 -0.0588696
0.307049 1.02879 -0.0588346
0.29677 1.03385 -0.0590746
0.213104 1.03455 -0.0585529
0.234451 1.03435 -0.0585573
0.255409 1.03417 -0.0586021
0.276227 1.034 -0.0586919
0.32751 1.01869 -0.0584959
0.347935 1.01859 -0.0585677
0.296835 1.02386 -0.0584222
0.31727 1.02373 -0.0586774
0.286546 1.02893 -0.0586292
0.223916 1.02946 -0.0582051
0.245033 1.02926 -0.0583121
0.265921 1.02909 -0.0582635
0.337745 1.01364 -0.0582174
0.307104 1.01881 -0.0581913
0.378326 1.05338 -0.0612452
0.398614 1.05332 -0.0612133
0.418923 1.05328 -0.0612625
0.357908 1.05346 -0.0609626
0.36816 1.04843 -0.0608242
0.388529 1.04837 -0.0608637
0.408772 1.04831 -0.0609181
0.368207 1.03845 -0.0601734
0.4088 1.03833 -0.0602604
0.357964 1.04348 -0.0603132
0.378387 1.04341 -0.0605863
0.398657 1.04335 -0.0605502
0.418947 1.0433 -0.060586
0.398684 1.03337 -0.0598837
0.418967 1.03332 -0.0599118
0.378426 1.03343 -0.0599088
0.388576 1.03839 -0.0602047
0.368276 1.02848 -0.0595192
0.388603 1.02841 -0.0595207
0.408827 1.02836 -0.0595854
0.358046 1.03351 -0.0596701
0.418982 1.02335 -0.0592363
0.378481 1.02345 -0.0592393
0.398718 1.02339 -0.0592126
0.368344 1.0185 -0.0588691
0.388646 1.01844 -0.0588467
0.408856 1.01838 -0.0589104
0.358126 1.02353 -0.0590334
0.378538 1.01348 -0.0585622
0.398751 1.01342 -0.0585401
0.418995 1.01338 -0.0585581
0.368417 1.00853 -0.0582324
0.388694 1.00846 -0.0581852
0.408878 1.00841 -0.0582513
0.358213 1.01356 -0.0583958
0.439228 1.05324 -0.0612416
0.459525 1.05321 -0.0613633
0.479817 1.0532 -0.0611956
0.429058 1.04827 -0.0608565
0.449384 1.04824 -0.0609801
0.469675 1.04822 -0.0609055
0.489948 1.04821 -0.0608457
0.449393 1.03826 -0.0603157
0.439245 1.04326 -0.0605653
0.459529 1.04324 -0.0606794
0.479806 1.04323 -0.0605139
0.459536 1.03326 -0.0600046
0.429092 1.0383 -0.0601876
0.469668 1.03824 -0.0602313
0.489927 1.03823 -0.0601752
0.449402 1.02828 -0.0596342
0.439262 1.03329 -0.059891
0.479792 1.03325 -0.0598374
0.439273 1.02331 -0.0592222
0.459534 1.02328 -0.0593239
0.429116 1.02832 -0.0595037
0.469661 1.02827 -0.0595446
0.489905 1.02826 -0.0594906
0.449411 1.01831 -0.0589549
0.469662 1.01829 -0.0588664
0.479776 1.02328 -0.0591578
0.439289 1.01334 -0.058549
0.459532 1.01331 -0.0586432
0.479772 1.0133 -0.058486
0.429144 1.01835 -0.0588217
0.48988 1.01829 -0.0588069
0.500007 1.03325 -0.059891
0.429166 1.00837 -0.0581567
0.449418 1.00833 -0.058287
0.469652 1.00832 -0.0581926
0.489873 1.00831 -0.0581415
0.223448 1.05941 -0.059967
0.244644 1.05921 -0.0602007
0.265604 1.05903 -0.0602222
0.212593 1.0645 -0.0603122
0.234036 1.0643 -0.0603746
0.255051 1.06411 -0.0605607
0.275952 1.06394 -0.0606187
0.24451 1.06919 -0.0608219
0.265488 1.06901 -0.0608729
0.223296 1.06939 -0.0605928
0.275846 1.07392 -0.0612778
0.21241 1.07449 -0.0609292
0.254936 1.0741 -0.061215
0.233903 1.07429 -0.060992
0.223141 1.07938 -0.0611802
0.244395 1.07918 -0.0614417
0.265385 1.079 -0.0615212
0.21225 1.08448 -0.0615868
0.233766 1.08427 -0.0616007
0.254811 1.08408 -0.0618675
0.275758 1.08391 -0.0619319
0.275662 1.09389 -0.0625674
0.244261 1.08916 -0.0620723
0.265273 1.08898 -0.062178
0.222993 1.08936 -0.0618076
0.212095 1.09447 -0.062203
0.222831 1.09935 -0.0623864
0.254689 1.09406 -0.0624905
0.244162 1.09915 -0.0626553
0.265177 1.09897 -0.0628144
0.233637 1.09426 -0.0622119
0.211964 1.10445 -0.0628368
0.211828 1.11444 -0.0634788
0.211694 1.12443 -0.0641207
0.254583 1.10404 -0.0631273
0.275575 1.10387 -0.0632132
0.233512 1.10424 -0.0628226
0.244042 1.10913 -0.0632657
0.265078 1.10894 -0.0634529
0.222692 1.10933 -0.0629947
0.254469 1.11402 -0.0637515
0.275483 1.11385 -0.0638498
0.233372 1.11422 -0.0634277
0.222531 1.11931 -0.0635811
0.243927 1.11912 -0.0638804
0.264981 1.11893 -0.0640803
0.233231 1.1242 -0.0640266
0.254368 1.12401 -0.0643807
0.275397 1.12384 -0.0644868
0.243792 1.1291 -0.0644986
0.264872 1.12891 -0.0647178
0.222385 1.1293 -0.0641974
0.32732 1.0586 -0.0610853
0.347779 1.0585 -0.0611719
0.28629 1.05887 -0.0605172
0.30686 1.05873 -0.060782
0.337523 1.06354 -0.0615049
0.296546 1.06378 -0.0609981
0.31706 1.06365 -0.0612432
0.347728 1.06848 -0.0618361
0.306781 1.06871 -0.0614367
0.327256 1.06858 -0.0617459
0.286205 1.06885 -0.0611353
0.316995 1.07363 -0.061891
0.337465 1.07352 -0.0621851
0.296462 1.07377 -0.0616665
0.327206 1.07856 -0.0623859
0.347691 1.07846 -0.0624841
0.286113 1.07883 -0.0617678
0.30671 1.07869 -0.0620972
0.33742 1.08349 -0.0628573
0.296372 1.08374 -0.0623274
0.316935 1.08361 -0.0625509
0.347654 1.08844 -0.0631556
0.316882 1.09359 -0.0631804
0.337375 1.09348 -0.0635006
0.306637 1.08867 -0.062752
0.327152 1.08854 -0.0630428
0.296298 1.09373 -0.0629573
0.286019 1.08881 -0.062417
0.327105 1.09852 -0.0636735
0.347613 1.09842 -0.0638043
0.28593 1.0988 -0.0630646
0.306575 1.09865 -0.0633934
0.337329 1.10346 -0.0641601
0.29621 1.10371 -0.0635991
0.316821 1.10358 -0.0638387
0.347586 1.1084 -0.0644654
0.306514 1.10863 -0.0640318
0.327058 1.1085 -0.0643294
0.285852 1.10878 -0.0637207
0.285688 1.12875 -0.0650168
0.316765 1.11355 -0.0644887
0.337284 1.11344 -0.0648284
0.296135 1.11369 -0.0642446
0.285758 1.11876 -0.0643685
0.327002 1.11848 -0.0649756
0.347543 1.11838 -0.0651252
0.306443 1.11861 -0.0646729
0.337236 1.12342 -0.0654722
0.296054 1.12367 -0.0648679
0.316701 1.12354 -0.0651394
0.306372 1.12859 -0.0653139
0.326945 1.12847 -0.0656321
0.347495 1.12836 -0.0657822
0.211576 1.13442 -0.0647407
0.254252 1.13399 -0.0650058
0.275303 1.13382 -0.0651207
0.233107 1.13419 -0.0646433
[...]
POINT_DATA 23836
VECTORS alpha float
7.03068e-07 -6.88021e-09 4.49404e-08
-4.17267e-07 2.04051e-05 -1.26181e-06
-3.3037e-07 2.0197e-05 -1.25446e-06
6.95455e-07 -6.76163e-09 4.4333e-08
-4.11907e-07 2.04178e-05 -1.28037e-06
-3.2463e-07 2.02092e-05 -1.26893e-06
7.17929e-07 -6.63601e-09 4.27656e-08
6.83339e-07 -6.8402e-09 2.53318e-08
-3.92641e-07 2.04302e-05 -1.26054e-06
-3.05421e-07 2.02213e-05 -1.2541e-06
7.10729e-07 -6.53033e-09 4.28091e-08
6.80139e-07 -6.57823e-09 4.30597e-08
6.75132e-07 -6.70414e-09 2.47408e-08
-3.09669e-07 2.02341e-05 -1.26677e-06
6.95543e-07 -6.35349e-09 4.21223e-08
-4.42964e-07 1.93986e-05 -1.19907e-06
-4.45407e-07 1.74037e-05 -9.61764e-07
-4.48109e-07 1.74172e-05 -9.78266e-07
7.18617e-07 -7.07841e-09 4.62012e-08
7.3358e-07 -6.81341e-09 4.4207e-08
6.97819e-07 -7.02785e-09 2.56128e-08
-4.18788e-07 2.0392e-05 -1.28698e-06
-3.29582e-07 2.01838e-05 -1.25482e-06
-4.39983e-07 1.93859e-05 -1.21874e-06
7.32826e-07 -7.26377e-09 4.76899e-08
7.48247e-07 -6.98329e-09 4.5747e-08
7.11888e-07 -7.20546e-09 2.65882e-08
-3.28352e-07 2.01706e-05 -1.25594e-06
-4.15222e-07 2.03783e-05 -1.28347e-06
-4.41159e-07 1.93724e-05 -1.19307e-06
7.41079e-07 -7.39622e-09 4.75788e-08
7.5697e-07 -7.11687e-09 4.62618e-08
7.19821e-07 -7.33998e-09 2.6327e-08
-4.06433e-07 2.03645e-05 -1.29981e-06
-3.12642e-07 2.01558e-05 -1.25056e-06
-4.21994e-07 1.93579e-05 -1.19712e-06
7.38503e-07 -7.39096e-09 -2.48585e-08
7.25663e-07 -7.22063e-09 -2.36599e-08
7.5408e-07 -7.57417e-09 4.85971e-08
7.69502e-07 -7.28592e-09 4.75977e-08
7.32282e-07 -7.52281e-09 2.65303e-08
-3.21503e-07 2.01426e-05 -1.26166e-06
-3.99758e-07 2.03494e-05 -1.27248e-06
-4.12292e-07 1.93436e-05 -1.16275e-06
7.67024e-07 -7.74417e-09 4.80863e-08
-4.04006e-07 2.03345e-05 -1.24473e-06
-3.32992e-07 2.01293e-05 -1.26639e-06
7.82375e-07 -7.45275e-09 4.74679e-08
7.44838e-07 -7.69075e-09 2.44891e-08
7.8396e-07 -7.94539e-09 4.88997e-08
7.99126e-07 -7.64789e-09 4.82717e-08
7.61694e-07 -7.87777e-09 2.32573e-08
-4.13248e-07 1.93294e-05 -1.09903e-06
-4.0215e-07 2.03187e-05 -1.24238e-06
-3.40729e-07 2.01145e-05 -1.26384e-06
-4.16471e-07 1.93152e-05 -1.13379e-06
7.9811e-07 -8.09929e-09 4.92168e-08
8.12984e-07 -7.79895e-09 4.88082e-08
7.75985e-07 -8.04817e-09 2.34008e-08
-3.90064e-07 2.03032e-05 -1.20744e-06
-3.36008e-07 2.01002e-05 -1.24547e-06
8.18547e-07 -8.34933e-09 4.95311e-08
8.32968e-07 -8.02458e-09 4.8874e-08
-3.90232e-07 1.93007e-05 -1.08488e-06
7.10017e-07 -7.02442e-09 -2.2364e-08
6.97433e-07 -6.84884e-09 -2.15004e-08
-4.34077e-07 1.73906e-05 -9.3058e-07
-4.58323e-07 1.73774e-05 -9.51084e-07
-4.61794e-07 1.73634e-05 -9.18244e-07
-4.49474e-07 1.7348e-05 -9.17433e-07
-4.73637e-07 1.73338e-05 -9.39737e-07
-4.71208e-07 1.73186e-05 -9.44455e-07
-5.12086e-07 1.73042e-05 -9.85326e-07
7.89318e-07 -7.44059e-09 -1.2864e-07
7.75168e-07 -7.26515e-09 -1.23457e-07
7.59325e-07 -7.07906e-09 -1.18989e-07
7.48073e-07 -6.95127e-09 -1.14891e-07
7.58562e-07 -7.62557e-09 -2.7123e-08
7.96696e-07 -8.27618e-09 2.10644e-08
-3.26413e-07 2.00855e-05 -1.23989e-06
-3.69418e-07 2.02878e-05 -1.17292e-06
-3.75115e-07 1.92852e-05 -1.07511e-06
8.34475e-07 -8.56073e-09 4.92987e-08
8.49143e-07 -8.23323e-09 4.85606e-08
8.12997e-07 -8.50292e-09 2.16005e-08
7.73076e-07 -7.8069e-09 -2.92688e-08
-3.7541e-07 1.92703e-05 -1.0876e-06
-3.6785e-07 2.02726e-05 -1.18215e-06
-3.1589e-07 2.00703e-05 -1.23966e-06
7.85167e-07 -7.97648e-09 -3.24225e-08
8.49011e-07 -8.74968e-09 4.70555e-08
8.64804e-07 -8.45424e-09 4.85357e-08
8.27385e-07 -8.7125e-09 2.04722e-08
8.62488e-07 -8.98514e-09 -4.49716e-08
-3.80341e-07 1.92551e-05 -1.08275e-06
-3.14322e-07 2.00558e-05 -1.24886e-06
-3.57341e-07 2.02567e-05 -1.19111e-06
8.00897e-07 -8.17628e-09 -3.6065e-08
8.13958e-07 -8.35707e-09 -3.92769e-08
8.28073e-07 -8.54092e-09 -4.07736e-08
8.46408e-07 -8.78416e-09 -4.2705e-08
8.6691e-07 -8.98419e-09 4.53941e-08
8.83193e-07 -8.69118e-09 4.70052e-08
8.4512e-07 -8.95624e-09 1.79107e-08
-3.49627e-07 1.92386e-05 -1.08124e-06
-3.05994e-07 2.00395e-05 -1.23292e-06
-3.49671e-07 2.02398e-05 -1.1869e-06
8.82443e-07 -9.18743e-09 4.44945e-08
8.99329e-07 -8.91044e-09 4.69781e-08
8.60458e-07 -9.16828e-09 1.62828e-08
-3.70074e-07 1.92233e-05 -1.08901e-06
-3.00874e-07 2.00227e-05 -1.22327e-06
-3.43887e-07 2.02229e-05 -1.18577e-06
8.73895e-07 -9.35866e-09 1.38982e-08
8.97708e-07 -9.38577e-09 4.19238e-08
9.15463e-07 -9.11655e-09 4.65153e-08
-3.77712e-07 1.92081e-05 -1.11709e-06
-3.09012e-07 2.00061e-05 -1.20907e-06
-3.47833e-07 2.02075e-05 -1.1963e-06
8.92685e-07 -9.63316e-09 1.29921e-08
9.17898e-07 -9.67822e-09 4.14666e-08
9.35931e-07 -9.3958e-09 4.70809e-08
-4.29575e-07 1.91919e-05 -1.17419e-06
-3.17718e-07 1.99884e-05 -1.22431e-06
-3.64246e-07 2.01898e-05 -1.23602e-06
9.10421e-07 -9.85406e-09 1.23266e-08
9.54638e-07 -9.63035e-09 4.70318e-08
9.36877e-07 -9.93688e-09 4.2121e-08
-4.12069e-08 1.00796e-05 -6.82769e-07
-3.98269e-08 8.79071e-06 -6.10265e-07
-3.8595e-08 8.79721e-06 -6.08416e-07
7.72324e-07 -3.7385e-09 1.29154e-08
7.84939e-07 -3.18252e-09 1.53973e-08
7.94865e-07 -2.68152e-09 1.4739e-08
-5.44418e-08 1.15524e-05 -7.88211e-07
-2.34809e-07 1.89812e-05 -1.19546e-06
-1.49683e-07 1.71723e-05 -1.08447e-06
-1.16585e-07 1.51718e-05 -1.00868e-06
-7.61377e-08 1.32558e-05 -8.9737e-07
7.76757e-07 -3.12186e-09 1.48397e-08
7.86387e-07 -2.63075e-09 1.40741e-08
-4.05503e-08 1.00868e-05 -6.83219e-07
7.61184e-07 -4.38801e-09 1.32479e-08
7.25634e-07 -6.11218e-09 3.44923e-08
7.37023e-07 -5.58078e-09 2.54367e-08
7.49435e-07 -5.05459e-09 1.82568e-08
-3.61279e-08 8.80333e-06 -6.07948e-07
7.64271e-07 -3.67586e-09 1.23133e-08
-5.28603e-08 1.15605e-05 -7.86876e-07
-2.33693e-07 1.89931e-05 -1.21397e-06
-1.49741e-07 1.71831e-05 -1.08657e-06
-1.1677e-07 1.51818e-05 -1.01153e-06
-7.66994e-08 1.32646e-05 -8.96651e-07
7.65615e-07 -3.0626e-09 1.43856e-08
7.75827e-07 -2.58723e-09 1.32767e-08
7.53209e-07 -4.30212e-09 1.29194e-08
-3.87327e-08 1.00937e-05 -6.82978e-07
7.30027e-07 -5.49051e-09 2.57305e-08
7.42263e-07 -4.97282e-09 1.8076e-08
7.18419e-07 -6.01062e-09 3.4746e-08
-3.58534e-08 8.80953e-06 -6.07931e-07
7.52449e-07 -3.59556e-09 1.19003e-08
-4.91312e-08 1.15685e-05 -7.84493e-07
-2.2167e-07 1.90051e-05 -1.21376e-06
-1.4156e-07 1.71939e-05 -1.07949e-06
-1.12957e-07 1.51918e-05 -1.0116e-06
-7.32642e-08 1.32735e-05 -8.96346e-07
7.47248e-07 -2.9811e-09 1.37318e-08
7.56967e-07 -2.51895e-09 1.23651e-08
-4.99519e-08 1.15767e-05 -7.8426e-07
-3.84182e-08 1.01007e-05 -6.80266e-07
7.4048e-07 -4.19118e-09 1.25475e-08
7.03997e-07 -5.85305e-09 3.45071e-08
7.16369e-07 -5.35686e-09 2.55853e-08
7.29255e-07 -4.85568e-09 1.7642e-08
-3.4177e-08 8.81552e-06 -6.09139e-07
7.34743e-07 -3.48974e-09 1.1549e-08
-8.7956e-09 6.51294e-06 -4.55853e-07
-6.85646e-09 5.42752e-06 -3.76218e-07
-1.01837e-08 4.3457e-06 -3.04573e-07
-1.5334e-08 7.62115e-06 -5.27783e-07
8.02993e-07 -2.11332e-09 1.26899e-08
8.09679e-07 -1.65116e-09 1.14331e-08
8.16934e-07 -1.37833e-09 9.98947e-09
7.94039e-07 -2.0662e-09 1.25199e-08
8.07524e-07 -1.3504e-09 9.80059e-09
-1.44868e-08 7.62681e-06 -5.24744e-07
-8.3266e-09 6.51767e-06 -4.54938e-07
-6.24239e-09 5.43143e-06 -3.75457e-07
-9.49448e-09 4.34882e-06 -3.03899e-07
-5.92445e-09 5.43522e-06 -3.75088e-07
-8.78044e-09 4.35185e-06 -3.03231e-07
-8.21112e-09 6.52233e-06 -4.52086e-07
8.00106e-07 -1.62064e-09 1.12538e-08
7.83325e-07 -2.0192e-09 1.2462e-08
7.90031e-07 -1.58331e-09 1.07467e-08
7.97406e-07 -1.32801e-09 9.59511e-09
-1.33208e-08 7.63225e-06 -5.22874e-07
-8.51328e-09 4.35489e-06 -3.03759e-07
-8.76002e-09 6.5269e-06 -4.53878e-07
-6.67741e-09 5.43906e-06 -3.76819e-07
7.63539e-07 -1.95353e-09 1.21324e-08
7.70082e-07 -1.53546e-09 1.03113e-08
7.77435e-07 -1.29607e-09 9.3183e-09
-1.40116e-08 7.63763e-06 -5.23034e-07
-8.84811e-09 6.53139e-06 -4.54073e-07
-6.48467e-09 5.44282e-06 -3.76755e-07
-8.32714e-09 4.35793e-06 -3.0428e-07
7.49572e-07 -1.89547e-09 1.19788e-08
7.56234e-07 -1.49242e-09 9.99977e-09
7.63681e-07 -1.26622e-09 9.1056e-09
-1.34255e-08 7.64291e-06 -5.24806e-07
-1.03999e-09 3.26143e-06 -2.27496e-07
-2.32497e-09 2.17464e-06 -1.51735e-07
-3.87824e-10 1.08727e-06 -7.55592e-08
8.22689e-07 -1.2346e-09 5.61746e-09
8.27132e-07 -5.85968e-10 9.12792e-09
8.29804e-07 -3.92348e-10 6.7602e-09
8.3044e-07 -3.04292e-10 -1.92752e-09
8.17364e-07 -5.68329e-10 9.00744e-09
-8.94193e-10 3.26376e-06 -2.2698e-07
-2.18185e-09 2.17619e-06 -1.51399e-07
-2.67797e-10 1.08805e-06 -7.53714e-08
-2.05251e-09 2.1777e-06 -1.51053e-07
8.12643e-07 -1.2033e-09 5.49953e-09
8.19639e-07 -3.88154e-10 6.5155e-09
8.20295e-07 -3.09705e-10 -2.0379e-09
8.074e-07 -5.53449e-10 8.9748e-09
-8.66567e-10 3.26597e-06 -2.26652e-07
-1.32602e-10 1.08879e-06 -7.52261e-08
-1.16452e-09 3.2683e-06 -2.26885e-07
-1.95603e-09 2.17922e-06 -1.51352e-07
8.02541e-07 -1.17135e-09 5.28784e-09
8.09742e-07 -3.83948e-10 6.32848e-09
8.10478e-07 -3.14463e-10 -2.07178e-09
7.87409e-07 -5.31189e-10 8.87861e-09
7.90135e-07 -3.71352e-10 6.08369e-09
-1.54479e-11 1.08954e-06 -7.53289e-08
-1.4267e-09 3.2706e-06 -2.27393e-07
-1.91883e-09 2.18077e-06 -1.5157e-07
1.98515e-11 1.09034e-06 -7.5423e-08
7.8245e-07 -1.13041e-09 5.0661e-09
7.90663e-07 -3.16344e-10 -2.05883e-09
2.34805e-13 1.09467e-10 -7.53551e-12
7.6899e-07 -1.09114e-09 4.85586e-09
7.73684e-07 -5.10452e-10 8.85929e-09
7.76439e-07 -3.64287e-10 5.90814e-09
7.77326e-07 -3.11531e-10 -2.03896e-09
7.41981e-07 -6.28169e-09 3.49635e-08
7.529e-07 -5.72574e-09 2.59322e-08
7.65402e-07 -5.18581e-09 1.90424e-08
-2.33625e-07 1.89688e-05 -1.20046e-06
-1.50542e-07 1.71615e-05 -1.08371e-06
-1.18251e-07 1.51613e-05 -1.01092e-06
-7.71411e-08 1.32462e-05 -8.9964e-07
7.68033e-07 -5.86973e-09 2.64584e-08
7.80813e-07 -5.31355e-09 1.98366e-08
7.56996e-07 -6.43482e-09 3.59156e-08
-7.91249e-08 1.32362e-05 -9.01936e-07
-2.33903e-07 1.89558e-05 -1.20155e-06
-1.19066e-07 1.515e-05 -1.01482e-06
-1.49954e-07 1.71496e-05 -1.08764e-06
7.6647e-07 -6.54681e-09 3.55483e-08
7.76894e-07 -5.97545e-09 2.67515e-08
7.89265e-07 -5.40428e-09 2.02747e-08
-2.32257e-07 1.89429e-05 -1.20317e-06
-1.47581e-07 1.71374e-05 -1.09676e-06
-1.14729e-07 1.51392e-05 -1.01191e-06
-7.39738e-08 1.32262e-05 -8.9892e-07
-7.62279e-08 1.3217e-05 -8.90613e-07
7.89477e-07 -6.10088e-09 2.69524e-08
8.01903e-07 -5.51504e-09 2.08736e-08
7.79259e-07 -6.69834e-09 3.61589e-08
-2.34338e-07 1.89301e-05 -1.21415e-06
7.92569e-07 -6.87453e-09 3.55913e-08
-1.14273e-07 1.5129e-05 -1.00616e-06
8.02986e-07 -6.26321e-09 2.68571e-08
8.15096e-07 -5.65207e-09 2.11064e-08
-1.46962e-07 1.71251e-05 -1.10616e-06
-2.4548e-07 1.89175e-05 -1.22456e-06
-2.42693e-07 1.89032e-05 -1.23253e-06
-2.3973e-07 1.889e-05 -1.22462e-06
-1.17347e-07 1.5118e-05 -1.00623e-06
-7.7588e-08 1.32069e-05 -8.93117e-07
-1.4952e-07 1.7113e-05 -1.1029e-06
8.2002e-07 -6.42892e-09 2.6696e-08
8.32179e-07 -5.79297e-09 2.11223e-08
8.09585e-07 -7.06839e-09 3.58532e-08
-1.15265e-07 1.51066e-05 -1.00572e-06
-7.59431e-08 1.31965e-05 -8.93601e-07
-1.48133e-07 1.71004e-05 -1.10917e-06
8.23799e-07 -7.23966e-09 3.56288e-08
8.33827e-07 -6.58075e-09 2.69287e-08
8.46032e-07 -5.93141e-09 2.12446e-08
-1.47458e-07 1.70884e-05 -1.10527e-06
-1.09653e-07 1.50951e-05 -9.97398e-07
-7.28764e-08 1.31861e-05 -8.85498e-07
8.53016e-07 -6.76572e-09 2.6963e-08
8.64741e-07 -6.09979e-09 2.14061e-08
8.43912e-07 -7.47128e-09 3.62131e-08
8.01494e-07 -3.26233e-09 1.60712e-08
8.11494e-07 -2.74309e-09 1.56014e-08
7.77772e-07 -4.51944e-09 1.37822e-08
7.88719e-07 -3.84131e-09 1.36148e-08
-3.87184e-08 8.78436e-06 -6.09479e-07
-5.46505e-08 1.15443e-05 -7.90917e-07
-4.00053e-08 1.00722e-05 -6.86788e-07
8.28538e-07 -2.8058e-09 1.65069e-08
8.05197e-07 -3.93575e-09 1.42763e-08
8.1815e-07 -3.35093e-09 1.66984e-08
7.93731e-07 -4.65187e-09 1.42941e-08
-3.93659e-08 1.00646e-05 -6.89404e-07
-3.7586e-08 8.77745e-06 -6.10639e-07
-5.40578e-08 1.15353e-05 -7.95362e-07
8.26037e-07 -3.40048e-09 1.69118e-08
8.36341e-07 -2.86738e-09 1.66058e-08
8.02316e-07 -4.73116e-09 1.43315e-08
8.13175e-07 -4.00004e-09 1.44369e-08
-3.4962e-08 8.7706e-06 -6.10145e-07
-4.94088e-08 1.15267e-05 -7.85853e-07
-3.50561e-08 1.00566e-05 -6.89908e-07
8.49955e-07 -2.92832e-09 1.72129e-08
-3.6467e-08 1.00495e-05 -6.86417e-07
-3.52873e-08 8.76405e-06 -6.06424e-07
8.26476e-07 -4.0907e-09 1.47286e-08
8.39282e-07 -3.48188e-09 1.72243e-08
-4.98259e-08 1.15184e-05 -7.79693e-07
8.14982e-07 -4.83822e-09 1.48232e-08
8.52926e-07 -3.56722e-09 1.74398e-08
8.63599e-07 -3.00849e-09 1.75658e-08
8.28266e-07 -4.94657e-09 1.50706e-08
8.39899e-07 -4.19926e-09 1.48371e-08
-3.5955e-08 8.75704e-06 -6.0553e-07
-5.20653e-08 1.15097e-05 -7.79939e-07
-3.62957e-08 1.00414e-05 -6.87153e-07
8.81625e-07 -3.09021e-09 1.78347e-08
8.57599e-07 -4.32308e-09 1.46628e-08
8.70643e-07 -3.67717e-09 1.74834e-08
8.45401e-07 -5.08037e-09 1.51378e-08
8.77532e-07 -5.33889e-09 1.60336e-08
-3.45591e-08 1.00333e-05 -6.87813e-07
-3.43697e-08 8.74959e-06 -6.07017e-07
-4.77011e-08 1.15001e-05 -7.80031e-07
8.59407e-07 -5.18562e-09 1.54437e-08
8.85342e-07 -3.76342e-09 1.75175e-08
8.9638e-07 -3.17174e-09 1.81078e-08
8.71999e-07 -4.43871e-09 1.46547e-08
-3.35637e-08 8.74246e-06 -6.04483e-07
-4.52551e-08 1.14912e-05 -7.74925e-07
-3.25215e-08 1.00251e-05 -6.86007e-07
8.90367e-07 -4.57226e-09 1.46076e-08
9.03324e-07 -3.87776e-09 1.76992e-08
9.14255e-07 -3.26555e-09 1.84542e-08
-2.26193e-07 1.88756e-05 -1.21295e-06
-1.04887e-07 1.50838e-05 -9.90704e-07
-6.98266e-08 1.31759e-05 -8.79435e-07
-1.42756e-07 1.70755e-05 -1.10377e-06
8.69521e-07 -6.94412e-09 2.68877e-08
8.81204e-07 -6.25433e-09 2.15005e-08
8.60517e-07 -7.67913e-09 3.6085e-08
-2.24861e-07 1.88623e-05 -1.2017e-06
-1.04462e-07 1.50719e-05 -9.9574e-07
-7.08596e-08 1.3165e-05 -8.83205e-07
-1.41144e-07 1.70624e-05 -1.10947e-06
8.9796e-07 -6.42758e-09 2.07866e-08
8.76394e-07 -7.86208e-09 3.56555e-08
8.86237e-07 -7.13227e-09 2.68781e-08
-2.36682e-07 1.88481e-05 -1.21052e-06
-7.44536e-08 1.31547e-05 -8.77146e-07
-1.46237e-07 1.70499e-05 -1.11201e-06
-1.05362e-07 1.50602e-05 -9.86713e-07
8.95236e-07 -8.0995e-09 3.54232e-08
9.06026e-07 -7.34589e-09 2.63421e-08
9.17488e-07 -6.60777e-09 2.06053e-08
-2.33198e-07 1.88333e-05 -1.19416e-06
-1.01744e-07 1.50479e-05 -9.83266e-07
-7.00418e-08 1.31432e-05 -8.71564e-07
-1.36405e-07 1.70358e-05 -1.10717e-06
-2.25752e-07 1.88175e-05 -1.18889e-06
-2.22242e-07 1.88023e-05 -1.17081e-06
-2.14985e-07 1.87856e-05 -1.17191e-06
9.10879e-07 -8.29314e-09 3.48774e-08
9.22875e-07 -7.53275e-09 2.64091e-08
9.33865e-07 -6.77528e-09 2.03035e-08
-9.86769e-08 1.50353e-05 -9.78645e-07
-6.88498e-08 1.31314e-05 -8.65478e-07
-1.33826e-07 1.70214e-05 -1.10729e-06
9.26815e-07 -8.49267e-09 3.52896e-08
9.39625e-07 -7.71637e-09 2.61041e-08
9.50446e-07 -6.94234e-09 2.00443e-08
-9.67911e-08 1.50226e-05 -9.76347e-07
-6.91795e-08 1.31203e-05 -8.61231e-07
-1.28959e-07 1.70075e-05 -1.09939e-06
9.46286e-07 -8.72081e-09 3.49361e-08
9.60023e-07 -7.94491e-09 2.62014e-08
9.7061e-07 -7.14056e-09 2.00746e-08
-9.53144e-08 1.50088e-05 -9.75823e-07
-6.79876e-08 1.31078e-05 -8.63268e-07
-1.22695e-07 1.69923e-05 -1.09644e-06
9.64709e-07 -8.94838e-09 3.52783e-08
9.89472e-07 -7.31718e-09 1.97728e-08
9.78863e-07 -8.15872e-09 2.63886e-08
-1.1419e-07 1.69775e-05 -1.09317e-06
-7.11174e-08 1.30968e-05 -8.5945e-07
-9.45998e-08 1.49954e-05 -9.68907e-07
-3.01286e-08 1.00169e-05 -6.80383e-07
-3.04414e-08 8.73512e-06 -5.97734e-07
-4.1041e-08 1.14818e-05 -7.72419e-07
8.94188e-07 -5.46561e-09 1.61206e-08
9.20673e-07 -3.98913e-09 1.73857e-08
9.31691e-07 -3.35084e-09 1.834e-08
9.07307e-07 -4.70596e-09 1.4193e-08
-3.07135e-08 8.7278e-06 -5.94272e-07
-4.31724e-08 1.14725e-05 -7.75961e-07
-2.93349e-08 1.00083e-05 -6.79271e-07
9.11313e-07 -5.62908e-09 1.59965e-08
9.38642e-07 -4.12059e-09 1.73103e-08
9.49917e-07 -3.45966e-09 1.82635e-08
9.24933e-07 -4.8593e-09 1.38435e-08
-3.2011e-08 8.72046e-06 -5.91453e-07
-4.43593e-08 1.14631e-05 -7.75678e-07
-3.03437e-08 1.00001e-05 -6.76706e-07
9.31159e-07 -5.78103e-09 1.58784e-08
9.70737e-07 -3.55758e-09 1.81724e-08
9.45339e-07 -5.01218e-09 1.31891e-08
9.59181e-07 -4.25448e-09 1.72003e-08
-2.86287e-08 9.99124e-06 -6.73791e-07
-2.96993e-08 8.71238e-06 -5.88999e-07
-3.97459e-08 1.14529e-05 -7.74031e-07
9.47645e-07 -5.93368e-09 1.58302e-08
9.76334e-07 -4.36988e-09 1.69406e-08
9.87832e-07 -3.66752e-09 1.796e-08
9.62148e-07 -5.16256e-09 1.26163e-08
-3.08271e-08 8.70456e-06 -5.88941e-07
-4.01751e-08 1.1443e-05 -7.75544e-07
-2.76476e-08 9.98211e-06 -6.73797e-07
9.64259e-07 -6.08593e-09 1.59924e-08
9.79475e-07 -5.30773e-09 1.22837e-08
9.93527e-07 -4.49722e-09 1.67906e-08
1.00527e-06 -3.78433e-09 1.77689e-08
9.84479e-07 -6.24425e-09 1.60247e-08
1.0032e-06 -6.40194e-09 1.63931e-08
-3.8285e-08 1.14323e-05 -7.71983e-07
-2.71281e-08 9.97291e-06 -6.76576e-07
-2.86888e-08 8.69619e-06 -5.91606e-07
1.01411e-06 -4.62056e-09 1.64648e-08
1.02586e-06 -3.88747e-09 1.76424e-08
9.99906e-07 -5.47347e-09 1.2018e-08
-3.90852e-08 1.14216e-05 -7.73618e-07
-3.01048e-08 8.68831e-06 -5.92738e-07
-2.83061e-08 9.96352e-06 -6.80388e-07
1.03317e-06 -4.75182e-09 1.62586e-08
1.04502e-06 -4.00108e-09 1.75739e-08
1.01905e-06 -5.62949e-09 1.19359e-08
-3.90252e-08 1.14111e-05 -7.67081e-07
-3.36346e-08 9.95458e-06 -6.79657e-07
-3.24565e-08 8.68023e-06 -5.92847e-07
8.20225e-07 -2.17625e-09 1.28681e-08
8.26973e-07 -1.69489e-09 1.17048e-08
8.34252e-07 -1.41241e-09 1.01228e-08
-1.58766e-08 7.61551e-06 -5.27492e-07
-7.46575e-09 6.50817e-06 -4.5519e-07
-5.69358e-09 5.42351e-06 -3.75643e-07
-9.75698e-09 4.34251e-06 -3.04554e-07
8.37566e-07 -2.23891e-09 1.32259e-08
8.4453e-07 -1.74524e-09 1.21339e-08
8.51965e-07 -1.45689e-09 1.03661e-08
-6.26699e-09 6.50321e-06 -4.55273e-07
-4.91519e-09 5.41936e-06 -3.76411e-07
-9.56232e-09 4.33921e-06 -3.0546e-07
-1.54323e-08 7.60948e-06 -5.29007e-07
8.45829e-07 -2.29117e-09 1.28378e-08
8.52978e-07 -1.7862e-09 1.19917e-08
8.60588e-07 -1.48895e-09 1.01668e-08
-1.41539e-08 7.60352e-06 -5.28243e-07
-4.893e-09 6.49812e-06 -4.53495e-07
8.5922e-07 -2.35829e-09 1.29213e-08
8.66501e-07 -1.83857e-09 1.21396e-08
8.74198e-07 -1.53285e-09 1.01476e-08
-3.45804e-09 5.41501e-06 -3.75988e-07
-8.7139e-09 4.33568e-06 -3.0458e-07
-1.56324e-08 7.5977e-06 -5.26091e-07
-4.31112e-09 6.49318e-06 -4.50786e-07
-3.43695e-09 5.41095e-06 -3.74875e-07
-8.81422e-09 4.33242e-06 -3.03696e-07
8.73407e-07 -2.42897e-09 1.27039e-08
8.80747e-07 -1.89152e-09 1.18351e-08
8.88515e-07 -1.57325e-09 9.90671e-09
-1.74072e-08 7.59157e-06 -5.24677e-07
-8.09982e-09 4.32871e-06 -3.04378e-07
-2.74631e-09 5.40639e-06 -3.75311e-07
-3.32457e-09 6.48781e-06 -4.50682e-07
8.91361e-07 -2.50582e-09 1.27297e-08
8.98768e-07 -1.9525e-09 1.1818e-08
9.06642e-07 -1.623e-09 9.91422e-09
-1.70654e-08 7.58508e-06 -5.24944e-07
-2.64513e-09 6.48238e-06 -4.50481e-07
-2.36442e-09 5.40193e-06 -3.76395e-07
-7.75828e-09 4.32522e-06 -3.03519e-07
-1.66419e-08 7.57882e-06 -5.22733e-07
9.06123e-07 -2.57372e-09 1.27816e-08
9.13614e-07 -2.01549e-09 1.15884e-08
9.21598e-07 -1.66698e-09 9.94418e-09
-7.67089e-10 6.4769e-06 -4.48363e-07
-1.22513e-09 5.39733e-06 -3.75312e-07
-7.22462e-09 4.32147e-06 -3.02703e-07
9.24274e-07 -2.65757e-09 1.25456e-08
9.31594e-07 -2.07632e-09 1.13492e-08
9.39479e-07 -1.7141e-09 9.88252e-09
8.44634e-07 -6.06078e-10 9.24067e-09
8.39825e-07 -1.27135e-09 5.94682e-09
8.4701e-07 -4.04761e-10 7.01937e-09
8.47622e-07 -3.10403e-10 -1.96386e-09
-6.03304e-10 3.25903e-06 -2.27903e-07
-2.24073e-09 2.17305e-06 -1.51689e-07
-4.01753e-10 1.08647e-06 -7.55703e-08
8.58082e-07 -1.31166e-09 6.22476e-09
8.62616e-07 -6.29481e-10 9.42712e-09
8.65398e-07 -4.15032e-10 7.25265e-09
8.65994e-07 -3.1301e-10 -2.03592e-09
-5.21232e-10 3.25655e-06 -2.28787e-07
-2.20423e-09 2.1714e-06 -1.52203e-07
-4.26376e-10 1.08564e-06 -7.58504e-08
8.71708e-07 -6.4007e-10 9.38321e-09
8.66669e-07 -1.33508e-09 6.44305e-09
8.74307e-07 -4.20675e-10 7.36953e-09
8.74945e-07 -3.1233e-10 -2.14678e-09
8.80811e-07 -1.35881e-09 6.65857e-09
8.85515e-07 -6.69362e-10 9.16173e-09
8.88526e-07 -4.22285e-10 7.56115e-09
8.89134e-07 -3.00476e-10 -2.143e-09
-2.47424e-10 3.25388e-06 -2.28401e-07
-2.13753e-09 2.16962e-06 -1.51746e-07
-3.92372e-10 1.08476e-06 -7.56381e-08
-6.34523e-10 3.25141e-06 -2.27769e-07
-2.47317e-09 2.16798e-06 -1.51348e-07