# vtk DataFile Version 3.0
vtk output
ASCII
DATASET POLYDATA
POINTS 22422 float
0.181347 0.989907 -0.0564917
0.202915 0.989677 -0.0563195
0.181482 0.979912 -0.0559603
0.170638 0.985035 -0.0560221
0.192162 0.984798 -0.0561864
0.159882 0.990155 -0.0554047
0.170816 0.975037 -0.0554571
0.192317 0.974804 -0.0555874
0.20305 0.979688 -0.0556953
0.213766 0.984579 -0.0557167
0.181637 0.969921 -0.0553861
0.181789 0.959928 -0.0547984
0.160036 0.980161 -0.055002
0.17098 0.965045 -0.0549155
0.192454 0.964816 -0.0549953
0.203183 0.969699 -0.0550664
0.213882 0.974589 -0.055085
0.147808 1.05524 -0.0580724
0.148015 1.04525 -0.0574969
0.136943 1.06036 -0.0570852
0.148206 1.03526 -0.0569377
0.148385 1.02526 -0.0563951
0.137182 1.05036 -0.0565582
0.137379 1.04037 -0.0560488
0.148564 1.01527 -0.0559204
0.148748 1.00527 -0.0553953
0.137597 1.03037 -0.0555044
0.137785 1.02038 -0.0549926
0.126529 1.05547 -0.0550847
0.148971 0.99528 -0.0548381
0.192013 0.994788 -0.0567719
0.17046 0.995031 -0.0565433
0.213644 0.994569 -0.0563378
0.181181 0.999902 -0.0570732
0.202785 0.999668 -0.0569205
0.159648 1.00015 -0.0560171
0.170302 1.00502 -0.057032
0.191861 1.00478 -0.0573709
0.213537 1.00456 -0.0569254
0.181056 1.00989 -0.0575787
0.202658 1.00966 -0.0575127
0.21343 1.01455 -0.0575231
0.159465 1.01015 -0.056564
0.191732 1.01477 -0.057938
0.180926 1.01989 -0.0581093
0.202541 1.01965 -0.0580919
0.17015 1.01502 -0.0575488
0.159291 1.02014 -0.0570705
0.191602 1.02476 -0.0585316
0.170004 1.02501 -0.0580702
0.213325 1.02454 -0.0581361
0.158871 1.04013 -0.0581924
0.15846 1.06011 -0.0593739
0.158688 1.05012 -0.058789
0.180787 1.02988 -0.0586831
0.202409 1.02964 -0.0587099
0.15908 1.03013 -0.0576563
0.191457 1.03476 -0.0591362
0.169832 1.03501 -0.0586316
0.2132 1.03453 -0.0587616
0.180651 1.03987 -0.0592017
0.202273 1.03963 -0.0593143
0.191318 1.04475 -0.0597313
0.169662 1.045 -0.059183
0.213091 1.04452 -0.0593599
0.180492 1.04987 -0.0597728
0.202135 1.04962 -0.0599362
0.191162 1.05474 -0.0603445
0.16946 1.05499 -0.0597825
0.212962 1.05451 -0.0599907
0.20199 1.05961 -0.0605596
0.180287 1.05986 -0.0603799
0.147585 1.06524 -0.0586222
0.126308 1.06547 -0.0555604
0.136694 1.07036 -0.0576226
0.147423 1.07523 -0.0590729
0.126107 1.07546 -0.0560053
0.136487 1.08035 -0.0581221
0.147197 1.08522 -0.0596216
0.125882 1.08545 -0.0564897
0.136232 1.09034 -0.0586774
0.146966 1.09522 -0.060188
0.125649 1.09545 -0.0569947
0.135989 1.10034 -0.0592267
0.146726 1.10521 -0.0607675
0.125412 1.10544 -0.0575037
0.13575 1.11033 -0.0597632
0.146431 1.11521 -0.0614232
0.135495 1.12032 -0.0603018
0.146157 1.1252 -0.0619997
0.135279 1.13031 -0.0607536
0.124883 1.12544 -0.0585268
0.125158 1.11544 -0.058035
0.114582 1.13054 -0.0560771
0.114874 1.12054 -0.0555703
0.1152 1.11055 -0.0550471
0.115409 1.10055 -0.0546176
0.191019 1.06473 -0.0608938
0.212829 1.0645 -0.0606221
0.16926 1.06499 -0.0603917
0.158275 1.07011 -0.0599346
0.180127 1.06986 -0.0608982
0.201848 1.06961 -0.0611491
0.169079 1.07498 -0.0609523
0.190869 1.07472 -0.061484
0.212702 1.07449 -0.0612586
0.158086 1.0801 -0.0604846
0.179946 1.07985 -0.0615245
0.201697 1.0796 -0.0618048
0.168854 1.08497 -0.0615762
0.190686 1.08472 -0.0621236
0.212548 1.08448 -0.0619378
0.157434 1.11008 -0.0622205
0.15719 1.12008 -0.062839
0.156945 1.13007 -0.0634674
0.157885 1.0901 -0.0610672
0.201556 1.08959 -0.0623883
0.179747 1.08984 -0.0621539
0.157647 1.10009 -0.0616787
0.168666 1.09497 -0.0621545
0.190506 1.09471 -0.0627278
0.212405 1.09447 -0.0625945
0.179577 1.09984 -0.0627402
0.201419 1.09958 -0.0630175
0.168467 1.10496 -0.0627562
0.190346 1.1047 -0.0633547
0.212273 1.10446 -0.0632473
0.201267 1.10957 -0.063641
0.179411 1.10983 -0.0633321
0.168267 1.11495 -0.0633242
0.19018 1.1147 -0.0639472
0.201119 1.11957 -0.0642498
0.212145 1.11446 -0.0638734
0.179195 1.11982 -0.0639593
0.190017 1.12469 -0.0645423
0.211985 1.12445 -0.0645251
0.168041 1.12495 -0.0639325
0.179021 1.12981 -0.0645636
0.200964 1.12956 -0.0648624
0.337911 0.983697 -0.0566218
0.358285 0.983617 -0.0566027
0.307322 0.988854 -0.0565162
0.327709 0.988741 -0.0567878
0.348091 0.988648 -0.0569074
0.245419 0.989294 -0.0559537
0.266204 0.989131 -0.0561071
0.286823 0.988988 -0.056314
0.297099 0.983927 -0.0561103
0.327754 0.978757 -0.0561505
0.348131 0.978666 -0.0562704
0.317548 0.983806 -0.0563265
0.224355 0.989471 -0.0557283
0.286896 0.979002 -0.055663
0.235015 0.984386 -0.055528
0.25584 0.984218 -0.0558088
0.276595 0.984068 -0.0558529
0.348168 0.968683 -0.0556386
0.317596 0.973821 -0.0556961
0.337947 0.973716 -0.0560003
0.358315 0.973637 -0.0559855
0.307379 0.978874 -0.0558945
0.224484 0.979483 -0.0551345
0.255933 0.97423 -0.055188
0.276673 0.974081 -0.0552208
0.245542 0.979313 -0.0553512
0.266305 0.979149 -0.0554793
0.307431 0.968889 -0.0552748
0.337984 0.963736 -0.0553572
0.358345 0.963658 -0.0553425
0.327796 0.968777 -0.0555289
0.297164 0.973944 -0.0555066
0.245646 0.969325 -0.054744
0.266391 0.969163 -0.0548578
0.286975 0.969021 -0.0550245
0.235144 0.974403 -0.0549416
0.327832 0.958795 -0.0548953
0.348192 0.958706 -0.0550034
0.297219 0.963962 -0.0548794
0.317637 0.963843 -0.0550679
0.368356 0.988567 -0.0570877
0.388702 0.988504 -0.0571463
0.40891 0.988454 -0.0571712
0.429192 0.98842 -0.0571132
0.449476 0.988386 -0.0571988
0.469717 0.988371 -0.0571434
0.489937 0.988365 -0.0570803
0.378559 0.983545 -0.0568878
0.398817 0.98349 -0.0568101
0.41907 0.983447 -0.0568984
0.439361 0.983415 -0.0567969
0.459596 0.983388 -0.0569342
0.479822 0.983381 -0.0567598
0.378603 0.973562 -0.0562534
0.398851 0.973508 -0.0561636
0.419089 0.973465 -0.0562485
0.368433 0.978589 -0.0564646
0.388753 0.978528 -0.0565063
0.408945 0.978478 -0.0565216
0.42921 0.978445 -0.0564529
0.439374 0.973434 -0.0561481
0.4596 0.973407 -0.0562847
0.479821 0.9734 -0.0561085
0.449484 0.978411 -0.0565409
0.469708 0.978396 -0.0564844
0.489914 0.97839 -0.0564227
0.368487 0.968608 -0.0558332
0.38879 0.968546 -0.055873
0.408975 0.968498 -0.055873
0.429228 0.968465 -0.0558004
0.449492 0.968431 -0.0558925
0.46971 0.968416 -0.0558346
0.489909 0.96841 -0.0557746
0.368531 0.958628 -0.0551923
0.388823 0.958567 -0.0552224
0.408995 0.958519 -0.0552212
0.419117 0.963489 -0.0555933
0.398894 0.963532 -0.0555137
0.378662 0.963588 -0.0556145
0.439388 0.963458 -0.0554947
0.449497 0.958453 -0.0552333
0.459599 0.963431 -0.0556273
0.479804 0.963424 -0.0554521
0.500003 0.983377 -0.0568084
0.50001 0.973395 -0.0561566
0.378706 0.953608 -0.0549691
0.398922 0.953554 -0.05486
0.419136 0.953513 -0.0549293
0.429241 0.958491 -0.0551378
0.439396 0.953482 -0.0548306
0.4596 0.953455 -0.0549636
0.479798 0.953449 -0.0547891
0.469696 0.958443 -0.0551716
0.489882 0.958436 -0.0551132
0.255733 0.994197 -0.0564251
0.276507 0.994047 -0.0564806
0.234902 0.994371 -0.0561326
0.286738 0.998968 -0.0569528
0.245316 0.999279 -0.056565
0.266112 0.999116 -0.0567346
0.224229 0.999459 -0.0563091
0.223947 1.02943 -0.0581861
0.223837 1.03942 -0.0588302
0.223732 1.0494 -0.0594765
0.223618 1.0594 -0.060119
0.266022 1.0091 -0.0573317
0.286674 1.00895 -0.0575823
0.255635 1.00418 -0.0570388
0.276428 1.00403 -0.0571061
0.234791 1.00436 -0.0567321
0.224126 1.00945 -0.0569428
0.224024 1.01944 -0.0575615
0.276338 1.01402 -0.0577255
0.234658 1.01434 -0.0573039
0.255542 1.01417 -0.0576381
0.245224 1.00926 -0.0571619
0.286596 1.01893 -0.058212
0.245111 1.01924 -0.0577535
0.265939 1.01908 -0.0579514
0.255441 1.02415 -0.0582407
0.276267 1.024 -0.0583553
0.234543 1.02432 -0.0578906
0.28653 1.02892 -0.058825
0.245013 1.02923 -0.0583737
0.265861 1.02907 -0.0585562
0.255354 1.03414 -0.058837
0.276192 1.03398 -0.0589697
0.234421 1.03431 -0.0585171
0.244889 1.03921 -0.0589899
0.265764 1.03905 -0.0591687
0.286462 1.0389 -0.0594551
0.255251 1.04412 -0.0594485
0.276108 1.04397 -0.0595763
0.234289 1.04429 -0.0591125
0.286387 1.04888 -0.0600635
0.244789 1.04919 -0.0596169
0.265684 1.04903 -0.0597821
0.255162 1.0541 -0.0600573
0.276034 1.05395 -0.0602
0.265586 1.05902 -0.0603893
0.286318 1.05887 -0.0606843
0.244674 1.05918 -0.0602486
0.234175 1.05428 -0.0597376
0.317491 0.993784 -0.0569597
0.337868 0.993678 -0.0572613
0.358252 0.993597 -0.0572419
0.297033 0.993909 -0.0567414
0.358226 1.00358 -0.0578781
0.327655 0.998719 -0.057423
0.348055 0.998625 -0.0575482
0.307254 0.998838 -0.0571443
0.337826 1.00366 -0.0578967
0.327618 1.0087 -0.0580502
0.348024 1.00861 -0.0581735
0.296952 1.00389 -0.0573587
0.317432 1.00377 -0.0575979
0.3072 1.00882 -0.057767
0.337785 1.01364 -0.0585149
0.358192 1.01356 -0.0585163
0.296891 1.01388 -0.0579632
0.31738 1.01375 -0.0582232
0.34799 1.01858 -0.0588144
0.307126 1.0188 -0.0583976
0.327566 1.01868 -0.0587068
0.317326 1.02373 -0.0588537
0.337745 1.02362 -0.0591449
0.358161 1.02354 -0.0591576
0.296823 1.02386 -0.0585972
0.327516 1.02866 -0.0593267
0.347952 1.02857 -0.0594362
0.307062 1.02879 -0.0590181
0.296624 1.05381 -0.0604678
0.3377 1.0336 -0.0597655
0.358125 1.03352 -0.0597873
0.296746 1.03384 -0.0592263
0.317268 1.03371 -0.0594864
0.296687 1.04383 -0.0598508
0.306994 1.03876 -0.0596507
0.327468 1.03865 -0.059972
0.347908 1.03855 -0.0600808
0.317215 1.04369 -0.0601191
0.337658 1.04358 -0.0604078
0.358091 1.0435 -0.0604356
0.327415 1.04862 -0.06061
0.347868 1.04853 -0.0607167
0.306933 1.04875 -0.0602847
0.337609 1.05356 -0.0610405
0.358053 1.05348 -0.061074
0.327365 1.05861 -0.061248
0.347826 1.05851 -0.0613518
0.317156 1.05368 -0.0607613
0.306871 1.05873 -0.0609202
0.234076 1.06427 -0.0603639
0.275947 1.06393 -0.0608132
0.255068 1.06409 -0.06068
0.222758 1.12932 -0.0646816
0.223497 1.06938 -0.0607709
0.286235 1.06885 -0.0613123
0.24455 1.06916 -0.060857
0.2655 1.069 -0.0610123
0.223373 1.07937 -0.0614409
0.223236 1.08936 -0.0620959
0.223113 1.09935 -0.0627464
0.222991 1.10934 -0.0633943
0.222864 1.11933 -0.064051
0.233983 1.07426 -0.0610203
0.254968 1.07407 -0.0612822
0.275879 1.07391 -0.0614391
0.265413 1.07898 -0.0616251
0.286173 1.07883 -0.0619472
0.244436 1.07915 -0.0615202
0.233857 1.08424 -0.0617026
0.275778 1.08389 -0.0620723
0.254858 1.08405 -0.0619377
[...]
POINT_DATA 22422
VECTORS alpha float
7.96356e-07 -7.06309e-09 5.84187e-08
8.13825e-07 -6.77333e-09 5.47332e-08
7.76612e-07 -6.84479e-09 5.84393e-08
-3.57395e-07 2.03061e-05 -1.23689e-06
-2.98991e-07 2.0103e-05 -1.25431e-06
7.73804e-07 -7.05982e-09 3.28669e-08
-3.57404e-07 2.03219e-05 -1.26457e-06
-2.94857e-07 2.01175e-05 -1.26793e-06
7.94351e-07 -6.57514e-09 5.48344e-08
-2.22044e-07 1.8893e-05 -1.21243e-06
7.63477e-07 -6.69423e-09 5.90589e-08
7.47381e-07 -6.50696e-09 5.86151e-08
7.53793e-07 -6.86017e-09 3.59101e-08
-3.55954e-07 2.03377e-05 -1.27015e-06
-2.85991e-07 2.01323e-05 -1.27725e-06
7.81157e-07 -6.42912e-09 5.50605e-08
-2.13673e-07 1.89061e-05 -1.21707e-06
-3.78669e-07 1.91935e-05 -1.1852e-06
-3.38847e-07 1.92096e-05 -1.15436e-06
8.39326e-07 -7.77968e-09 -2.38707e-08
-3.30685e-07 1.92253e-05 -1.11485e-06
-3.15105e-07 1.92409e-05 -1.10951e-06
8.23562e-07 -7.5926e-09 -2.16137e-08
8.06613e-07 -7.37216e-09 -1.92863e-08
-3.4922e-07 1.92575e-05 -1.11569e-06
-3.48934e-07 1.9273e-05 -1.12532e-06
7.93924e-07 -7.21242e-09 -1.73623e-08
7.81111e-07 -7.04455e-09 -1.44676e-08
-4.60357e-07 1.73059e-05 -1.02368e-06
-3.54725e-07 1.92882e-05 -1.11241e-06
-2.93135e-07 2.00881e-05 -1.24875e-06
-3.41493e-07 2.02906e-05 -1.20011e-06
-2.12926e-07 1.88785e-05 -1.20504e-06
8.11961e-07 -7.24941e-09 5.86783e-08
8.29746e-07 -6.9583e-09 5.48543e-08
7.89644e-07 -7.25864e-09 3.40105e-08
-3.37506e-07 2.02751e-05 -1.20796e-06
-2.83549e-07 2.00727e-05 -1.25117e-06
-2.10608e-07 1.88647e-05 -1.20186e-06
8.26271e-07 -7.42057e-09 5.67713e-08
8.45076e-07 -7.1563e-09 5.51903e-08
-2.19666e-07 1.88501e-05 -1.21886e-06
8.03682e-07 -7.44708e-09 3.33236e-08
-2.8219e-07 2.00579e-05 -1.2643e-06
8.43794e-07 -7.63108e-09 5.54492e-08
8.63137e-07 -7.37022e-09 5.39542e-08
-3.2486e-07 2.02591e-05 -1.21656e-06
8.2103e-07 -7.66795e-09 3.1163e-08
-2.76286e-07 2.00415e-05 -1.25252e-06
-3.16315e-07 2.0242e-05 -1.21251e-06
-2.15155e-07 1.88349e-05 -1.21027e-06
8.49206e-07 -8.0265e-09 2.81022e-08
8.84538e-07 -8.47469e-09 2.73382e-08
8.67617e-07 -8.26938e-09 2.79558e-08
8.58912e-07 -7.8122e-09 5.48223e-08
8.78858e-07 -7.56574e-09 5.41744e-08
8.35931e-07 -7.85903e-09 2.98841e-08
-2.73797e-07 2.00245e-05 -1.24833e-06
-3.10036e-07 2.02248e-05 -1.21271e-06
-2.12434e-07 1.88189e-05 -1.2145e-06
8.73904e-07 -7.98883e-09 5.26363e-08
8.94491e-07 -7.74734e-09 5.39701e-08
-2.81972e-07 2.00076e-05 -1.24138e-06
-3.14562e-07 2.02091e-05 -1.23281e-06
-2.12868e-07 1.88036e-05 -1.20221e-06
8.93601e-07 -8.24809e-09 5.26919e-08
9.14346e-07 -7.99292e-09 5.48406e-08
-2.8629e-07 1.99899e-05 -1.24877e-06
-3.19568e-07 2.01913e-05 -1.2569e-06
-2.13181e-07 1.87869e-05 -1.20372e-06
9.3256e-07 -8.20627e-09 5.47549e-08
9.1184e-07 -8.48374e-09 5.33952e-08
-3.74249e-07 1.91762e-05 -1.15464e-06
-4.45058e-07 1.72889e-05 -9.74021e-07
8.55867e-07 -8.00493e-09 -2.6299e-08
-3.87678e-07 1.91597e-05 -1.15756e-06
-4.37297e-07 1.72727e-05 -9.59888e-07
8.72108e-07 -8.2249e-09 -2.95407e-08
-3.85669e-07 1.91417e-05 -1.14708e-06
-4.43434e-07 1.72568e-05 -9.87731e-07
8.89001e-07 -8.44861e-09 -3.16375e-08
-3.90231e-07 1.91242e-05 -1.11662e-06
-4.38088e-07 1.72405e-05 -9.7449e-07
9.04334e-07 -8.68639e-09 -3.36047e-08
-3.99999e-07 1.9106e-05 -1.12937e-06
-4.48447e-07 1.72241e-05 -9.91394e-07
9.20868e-07 -8.9279e-09 -3.60621e-08
-4.05644e-07 1.90863e-05 -1.12064e-06
9.44355e-07 -9.24532e-09 -3.87133e-08
-4.13031e-07 1.90679e-05 -1.11744e-06
9.60612e-07 -9.46181e-09 -4.2062e-08
-4.31545e-07 1.71885e-05 -9.1303e-07
-4.32181e-07 1.72051e-05 -9.43678e-07
8.81755e-07 -7.87408e-09 -1.29568e-07
8.67356e-07 -7.67101e-09 -1.26377e-07
8.45432e-07 -7.40485e-09 -1.21876e-07
8.31931e-07 -7.22274e-09 -1.17198e-07
-2.79393e-07 1.99726e-05 -1.24117e-06
-2.02957e-07 1.87709e-05 -1.20605e-06
-2.87204e-07 2.01729e-05 -1.22785e-06
9.0235e-07 -8.7071e-09 2.61223e-08
9.30871e-07 -8.72835e-09 5.11964e-08
9.5229e-07 -8.46719e-09 5.45957e-08
-2.95065e-07 2.01552e-05 -1.23487e-06
-2.79846e-07 1.99546e-05 -1.25029e-06
-1.9971e-07 1.87539e-05 -1.21383e-06
9.1979e-07 -8.92777e-09 2.47086e-08
9.5002e-07 -8.97612e-09 5.20987e-08
9.70806e-07 -8.69453e-09 5.562e-08
-3.02728e-07 2.01374e-05 -1.23876e-06
-2.72649e-07 1.99363e-05 -1.25331e-06
-1.9907e-07 1.87373e-05 -1.21959e-06
9.72231e-07 -9.67231e-09 2.11289e-08
9.97318e-07 -1.00304e-08 2.14262e-08
1.01624e-06 -1.03033e-08 2.18773e-08
9.37756e-07 -9.17714e-09 2.36009e-08
9.90626e-07 -8.92871e-09 5.5436e-08
9.70716e-07 -9.24133e-09 5.31436e-08
9.54591e-07 -9.42017e-09 2.28715e-08
-2.92825e-07 2.01184e-05 -1.23305e-06
-2.62784e-07 1.99181e-05 -1.23381e-06
-1.91699e-07 1.87197e-05 -1.22458e-06
9.88486e-07 -9.46715e-09 5.15278e-08
1.00867e-06 -9.16008e-09 5.59547e-08
-3.10994e-07 2.01e-05 -1.23447e-06
-2.51275e-07 1.98987e-05 -1.22762e-06
-1.98532e-07 1.87023e-05 -1.2334e-06
1.02763e-06 -9.41021e-09 5.52902e-08
1.00656e-06 -9.72904e-09 4.98207e-08
-3.38421e-07 2.00805e-05 -1.23134e-06
-2.52662e-07 1.98794e-05 -1.2365e-06
1.05192e-06 -9.71904e-09 5.53877e-08
-2.03317e-07 1.86837e-05 -1.22446e-06
1.03143e-06 -1.0027e-08 5.02524e-08
-2.74675e-07 1.98612e-05 -1.25235e-06
-2.13266e-07 1.86654e-05 -1.22011e-06
-3.59155e-07 2.00624e-05 -1.26891e-06
1.05002e-06 -1.03064e-08 5.07723e-08
1.07072e-06 -9.97369e-09 5.53623e-08
-3.35962e-08 8.74374e-06 -6.01216e-07
-2.38806e-08 7.57976e-06 -5.21284e-07
8.81016e-07 -3.83031e-09 1.73116e-08
8.94837e-07 -3.20752e-09 1.97084e-08
9.06784e-07 -2.68537e-09 1.96497e-08
8.38725e-07 -5.70345e-09 3.0516e-08
8.52504e-07 -5.13375e-09 2.42617e-08
8.6735e-07 -4.51265e-09 1.89555e-08
-4.79455e-08 1.14929e-05 -7.6923e-07
8.7717e-07 -3.10044e-09 1.94644e-08
8.89263e-07 -2.6015e-09 1.9227e-08
-3.3707e-08 1.00266e-05 -6.81714e-07
8.27384e-07 -6.32607e-09 4.02067e-08
8.4938e-07 -4.37033e-09 1.86434e-08
-1.42845e-07 1.70913e-05 -1.09279e-06
-1.0602e-07 1.50977e-05 -9.86281e-07
-7.03331e-08 1.31884e-05 -8.75418e-07
8.74989e-07 -2.52811e-09 1.87738e-08
-3.38572e-08 1.00347e-05 -6.84915e-07
-3.30373e-08 8.75085e-06 -6.04913e-07
-2.26215e-08 7.58602e-06 -5.24486e-07
8.62922e-07 -3.69986e-09 1.73361e-08
8.07942e-07 -6.1141e-09 3.97924e-08
-1.09019e-07 1.51091e-05 -9.96115e-07
-7.12295e-08 1.31988e-05 -8.85004e-07
8.2003e-07 -5.53377e-09 3.06499e-08
8.34156e-07 -4.97814e-09 2.42599e-08
8.48806e-07 -3.58439e-09 1.71763e-08
-3.31601e-08 8.75832e-06 -6.0436e-07
-2.21185e-08 7.59258e-06 -5.2357e-07
8.6285e-07 -3.01881e-09 1.92458e-08
-4.77161e-08 1.15018e-05 -7.76057e-07
8.06505e-07 -5.38794e-09 3.04186e-08
8.20518e-07 -4.84409e-09 2.41533e-08
8.35525e-07 -4.26368e-09 1.82954e-08
-1.40721e-07 1.71032e-05 -1.09803e-06
8.45582e-07 -2.91884e-09 1.90058e-08
8.57516e-07 -2.45943e-09 1.83258e-08
-4.96562e-08 1.15114e-05 -7.78136e-07
-3.3699e-08 1.00429e-05 -6.85726e-07
9.17126e-07 -2.1832e-09 1.54547e-08
9.24774e-07 -1.65471e-09 1.39189e-08
9.32991e-07 -1.35222e-09 1.20464e-08
9.40139e-07 -1.24268e-09 8.07661e-09
9.45047e-07 -5.49144e-10 9.95529e-09
9.48399e-07 -3.14622e-10 8.13935e-09
9.49227e-07 -2.32467e-10 -2.292e-09
-6.43826e-09 6.47764e-06 -4.47701e-07
-4.25805e-09 5.39792e-06 -3.75494e-07
-8.24859e-09 4.32191e-06 -3.0341e-07
-1.70804e-09 3.24351e-06 -2.27615e-07
-2.60418e-09 2.16268e-06 -1.51488e-07
-5.15729e-10 1.08128e-06 -7.56866e-08
-7.12713e-09 6.48309e-06 -4.49706e-07
-4.60557e-09 5.4025e-06 -3.7638e-07
-8.29847e-09 4.32564e-06 -3.03984e-07
8.99011e-07 -2.08615e-09 1.59049e-08
9.06813e-07 -1.5856e-09 1.42963e-08
9.15114e-07 -1.30209e-09 1.21744e-08
9.22272e-07 -1.20778e-09 8.00193e-09
-1.64725e-09 3.24631e-06 -2.27931e-07
-2.41416e-09 2.16455e-06 -1.51921e-07
-3.38195e-10 1.08222e-06 -7.58384e-08
9.27278e-07 -5.2828e-10 9.94267e-09
9.30684e-07 -3.08952e-10 8.02093e-09
9.31577e-07 -2.43437e-10 -2.39773e-09
8.84313e-07 -2.0101e-09 1.59928e-08
8.92017e-07 -1.51859e-09 1.45914e-08
9.00208e-07 -1.25969e-09 1.21363e-08
9.0716e-07 -1.17336e-09 7.78878e-09
9.12117e-07 -5.07017e-10 9.83873e-09
9.15447e-07 -2.99636e-10 7.88023e-09
9.16311e-07 -2.4808e-10 -2.49747e-09
8.66507e-07 -1.93105e-09 1.60414e-08
8.74137e-07 -1.45891e-09 1.46268e-08
8.82214e-07 -1.2146e-09 1.20953e-08
-7.99882e-09 4.32918e-06 -3.04211e-07
-4.23741e-09 5.40702e-06 -3.74659e-07
-6.90062e-09 6.48858e-06 -4.49344e-07
-1.25626e-09 3.24897e-06 -2.28137e-07
8.93928e-07 -4.88527e-10 9.7096e-09
-2.13527e-09 2.16633e-06 -1.51862e-07
-1.57482e-10 1.08311e-06 -7.57643e-08
-4.80087e-14 1.12315e-10 -7.85634e-12
-7.27714e-14 1.12468e-10 -7.86685e-12
-6.97014e-09 6.494e-06 -4.49142e-07
-4.16574e-09 5.41162e-06 -3.738e-07
-8.09958e-09 4.33293e-06 -3.0305e-07
8.88676e-07 -1.14067e-09 7.77442e-09
-1.06398e-09 3.2518e-06 -2.27169e-07
-2.1103e-09 2.16823e-06 -1.50974e-07
-1.25778e-10 1.08406e-06 -7.52997e-08
8.96922e-07 -3.01982e-10 7.73104e-09
8.97831e-07 -2.67622e-10 -2.59526e-09
-1.0247e-07 1.50862e-05 -9.81051e-07
-6.8115e-08 1.31781e-05 -8.70503e-07
-1.39518e-07 1.70782e-05 -1.09325e-06
8.838e-07 -4.6247e-09 1.91101e-08
8.54941e-07 -5.86385e-09 3.05045e-08
8.68706e-07 -5.27104e-09 2.44139e-08
8.43667e-07 -6.51463e-09 4.01456e-08
8.93103e-07 -7.07944e-09 3.91661e-08
9.08735e-07 -7.26315e-09 3.96876e-08
9.27909e-07 -7.47283e-09 3.94961e-08
9.46044e-07 -7.68048e-09 4.00531e-08
8.8523e-07 -5.43037e-09 2.37325e-08
9.00745e-07 -4.77321e-09 1.90761e-08
-1.01446e-07 1.5074e-05 -9.90713e-07
-6.81099e-08 1.31669e-05 -8.77965e-07
-1.37909e-07 1.70648e-05 -1.10463e-06
8.59251e-07 -6.68175e-09 3.97767e-08
8.77733e-07 -6.89962e-09 3.96334e-08
-7.06105e-08 1.31563e-05 -8.74923e-07
-1.42479e-07 1.70521e-05 -1.11237e-06
-1.01836e-07 1.50622e-05 -9.85598e-07
8.71365e-07 -6.03471e-09 3.05527e-08
9.20391e-07 -4.90787e-09 1.90807e-08
8.9083e-07 -6.22942e-09 3.00961e-08
9.04463e-07 -5.59262e-09 2.36197e-08
-9.75247e-08 1.50496e-05 -9.86186e-07
-6.51249e-08 1.31446e-05 -8.72397e-07
-1.32744e-07 1.70377e-05 -1.11262e-06
9.36718e-07 -5.04534e-09 1.91776e-08
9.07386e-07 -6.39944e-09 3.02572e-08
9.20605e-07 -5.7458e-09 2.33945e-08
-9.37865e-08 1.50367e-05 -9.85745e-07
-6.27732e-08 1.31326e-05 -8.69422e-07
-1.29974e-07 1.70231e-05 -1.11824e-06
9.23884e-07 -6.56837e-09 3.00549e-08
9.36971e-07 -5.89884e-09 2.3234e-08
9.53168e-07 -5.18253e-09 1.95039e-08
-9.11226e-08 1.50237e-05 -9.87535e-07
-6.18262e-08 1.31212e-05 -8.68136e-07
-1.25373e-07 1.70088e-05 -1.11564e-06
9.73192e-07 -5.3266e-09 1.95714e-08
9.43989e-07 -6.77676e-09 3.0313e-08
9.5689e-07 -6.07873e-09 2.3402e-08
-8.87738e-08 1.50096e-05 -9.91908e-07
-5.90888e-08 1.31084e-05 -8.73906e-07
9.75563e-07 -6.23868e-09 2.32805e-08
9.91746e-07 -5.46985e-09 2.00192e-08
9.62578e-07 -6.97128e-09 3.0705e-08
-1.19199e-07 1.69933e-05 -1.11898e-06
-3.21136e-08 1.00183e-05 -6.7604e-07
-3.10644e-08 8.73633e-06 -5.94495e-07
-2.24407e-08 7.57317e-06 -5.17863e-07
-4.47418e-08 1.14834e-05 -7.66563e-07
-2.39538e-08 7.56661e-06 -5.15904e-07
9.12039e-07 -3.3054e-09 1.94397e-08
9.24079e-07 -2.75655e-09 1.95761e-08
8.97803e-07 -3.95114e-09 1.69473e-08
-3.03811e-08 8.72884e-06 -5.92057e-07
9.29862e-07 -3.42202e-09 1.94195e-08
9.42167e-07 -2.85057e-09 1.95417e-08
-4.57715e-08 1.14739e-05 -7.71769e-07
-3.03377e-08 1.00096e-05 -6.76233e-07
9.15285e-07 -4.09057e-09 1.66652e-08
-3.06147e-08 8.72132e-06 -5.90385e-07
-2.32444e-08 7.55981e-06 -5.15327e-07
-4.60717e-08 1.14643e-05 -7.73362e-07
-3.0384e-08 1.00011e-05 -6.75152e-07
9.62819e-07 -2.93189e-09 1.95229e-08
9.35534e-07 -4.22852e-09 1.61058e-08
9.50227e-07 -3.53936e-09 1.93954e-08
-2.77235e-08 9.99205e-06 -6.7362e-07
-2.72334e-08 8.71305e-06 -5.88999e-07
-2.12664e-08 7.55255e-06 -5.13742e-07
-4.06622e-08 1.14539e-05 -7.73446e-07
9.6725e-07 -3.64046e-09 1.92353e-08
9.79786e-07 -3.0272e-09 1.93971e-08
9.52224e-07 -4.36608e-09 1.56454e-08
-3.73939e-08 1.14219e-05 -7.78657e-07
-2.72148e-08 8.70502e-06 -5.90192e-07
-2.18546e-08 7.54545e-06 -5.14789e-07
-4.00977e-08 1.14437e-05 -7.77027e-07
-2.56873e-08 9.98269e-06 -6.75245e-07
-3.75135e-08 1.14329e-05 -7.75262e-07
9.69426e-07 -4.49815e-09 1.54438e-08
9.84318e-07 -3.75392e-09 1.92021e-08
9.971e-07 -3.12969e-09 1.93107e-08
-2.41213e-08 9.97327e-06 -6.7948e-07
-2.39724e-08 8.69644e-06 -5.93961e-07
-2.02864e-08 7.53797e-06 -5.16202e-07
1.00476e-06 -3.86364e-09 1.89932e-08
1.01756e-06 -3.21739e-09 1.93005e-08
9.89715e-07 -4.65117e-09 1.53005e-08
-2.43245e-08 8.68836e-06 -5.96186e-07
-2.14121e-08 7.53081e-06 -5.18421e-07
1.02371e-06 -3.98314e-09 1.8898e-08
1.0366e-06 -3.31705e-09 1.93521e-08
-2.42057e-08 9.96365e-06 -6.84715e-07
1.00873e-06 -4.79655e-09 1.53238e-08
-1.08983e-07 1.69782e-05 -1.11935e-06
-6.0044e-08 1.30971e-05 -8.72849e-07
-8.6166e-08 1.49959e-05 -9.88163e-07
1.08192e-06 -9.29337e-09 4.20684e-08
9.65376e-07 -7.89849e-09 3.92374e-08
1.01247e-06 -5.62235e-09 1.96958e-08
9.83062e-07 -7.18467e-09 3.00003e-08
9.95912e-07 -6.4203e-09 2.32683e-08
9.83425e-07 -8.10661e-09 4.05057e-08
1.00351e-06 -8.32465e-09 4.1273e-08
1.0211e-06 -8.52963e-09 4.1376e-08
1.03938e-06 -8.7812e-09 4.1132e-08
1.06368e-06 -9.03448e-09 4.1982e-08
-1.07841e-07 1.69626e-05 -1.12072e-06
-8.3731e-08 1.49822e-05 -9.84838e-07
-5.53185e-08 1.30843e-05 -8.71702e-07
1.01355e-06 -6.5828e-09 2.31564e-08
1.02975e-06 -5.76705e-09 1.99224e-08
1.00122e-06 -7.36439e-09 3.0847e-08
-1.10559e-07 1.69476e-05 -1.11825e-06
-5.59551e-08 1.30722e-05 -8.74539e-07
-8.29509e-08 1.49679e-05 -9.87321e-07
1.05114e-06 -5.90495e-09 2.06968e-08
1.02264e-06 -7.56329e-09 3.1244e-08
1.03467e-06 -6.74871e-09 2.3968e-08
-1.17786e-07 1.69321e-05 -1.11204e-06
-8.19309e-08 1.49538e-05 -9.8766e-07
-5.19007e-08 1.30593e-05 -8.77409e-07
-5.05981e-08 1.30462e-05 -8.76265e-07
1.05386e-06 -6.90473e-09 2.41594e-08
1.07035e-06 -6.04823e-09 2.13664e-08
1.04122e-06 -7.7761e-09 3.12626e-08
-1.28093e-07 1.69163e-05 -1.12805e-06
1.0899e-06 -6.20132e-09 2.17594e-08
1.0609e-06 -8.00579e-09 3.11814e-08
1.07293e-06 -7.09935e-09 2.42395e-08
-8.25464e-08 1.49392e-05 -9.86192e-07
-1.28622e-07 1.68993e-05 -1.12105e-06
-4.97041e-08 1.30326e-05 -8.80108e-07
-8.14672e-08 1.49242e-05 -9.85231e-07
1.08424e-06 -8.24931e-09 3.18514e-08
1.09724e-06 -7.27557e-09 2.45273e-08
1.11348e-06 -6.37247e-09 2.17653e-08
-1.38085e-07 1.68827e-05 -1.11665e-06
-4.88502e-08 1.30189e-05 -8.79088e-07
-8.05993e-08 1.49083e-05 -9.83962e-07
1.10198e-06 -8.46209e-09 3.27985e-08
1.1332e-06 -6.51802e-09 2.19143e-08
1.11658e-06 -7.46686e-09 2.45757e-08
-3.56095e-08 1.14111e-05 -7.72698e-07
-2.77334e-08 9.95448e-06 -6.84678e-07
-2.50398e-08 8.68006e-06 -5.96946e-07
-2.36176e-08 7.52341e-06 -5.20536e-07
1.05822e-06 -3.41214e-09 1.93388e-08
1.04529e-06 -4.09514e-09 1.87601e-08
1.03007e-06 -4.95889e-09 1.45777e-08
-3.36291e-08 1.14e-05 -7.69666e-07
-2.29944e-08 8.67141e-06 -5.99277e-07
-2.22853e-08 7.51588e-06 -5.20308e-07
-2.24355e-08 9.94443e-06 -6.84901e-07
1.06293e-06 -4.21159e-09 1.86087e-08
1.07596e-06 -3.50408e-09 1.96966e-08
1.04774e-06 -5.09935e-09 1.44435e-08
-3.31692e-08 1.13885e-05 -7.73169e-07
-2.2516e-08 8.66251e-06 -6.02425e-07
-2.23041e-08 7.50805e-06 -5.23143e-07
-2.23504e-08 9.93424e-06 -6.89915e-07
1.08519e-06 -4.31376e-09 1.90245e-08
1.09844e-06 -3.59225e-09 2.04505e-08
1.0701e-06 -5.24133e-09 1.49728e-08
-2.29321e-08 8.65379e-06 -6.01924e-07
-2.3272e-08 7.50036e-06 -5.22915e-07
-3.43371e-08 1.13773e-05 -7.77842e-07
-2.27274e-08 9.92428e-06 -6.8992e-07
1.08973e-06 -5.3588e-09 1.58754e-08
1.10554e-06 -4.43279e-09 1.92723e-08
1.11913e-06 -3.70156e-09 2.06295e-08
-3.20427e-08 1.13653e-05 -7.77019e-07
-3.64751e-08 1.13536e-05 -7.80404e-07
-3.57591e-08 1.13408e-05 -7.86757e-07
-1.94155e-08 8.64452e-06 -5.99403e-07
-2.10203e-08 7.49217e-06 -5.22523e-07
-1.87201e-08 9.91365e-06 -6.88864e-07
1.10879e-06 -5.47245e-09 1.66235e-08
1.13961e-06 -3.79916e-09 2.07182e-08
1.12583e-06 -4.55249e-09 1.96434e-08
-2.16692e-08 9.90338e-06 -6.872e-07
-2.08232e-08 8.63514e-06 -5.99492e-07
-2.26623e-08 7.48398e-06 -5.21791e-07
1.1324e-06 -5.62032e-09 1.7098e-08
1.1502e-06 -4.70009e-09 1.9509e-08
1.16381e-06 -3.92405e-09 2.09202e-08
-2.13982e-08 8.6256e-06 -6.02479e-07
-2.2967e-08 7.47564e-06 -5.24077e-07
-1.96193e-08 9.89205e-06 -6.9228e-07
1.15229e-06 -5.73017e-09 1.80396e-08
1.18548e-06 -4.02182e-09 2.12207e-08
1.1713e-06 -4.83089e-09 1.98342e-08
-5.37208e-09 6.47217e-06 -4.42823e-07
-7.57338e-09 4.31823e-06 -3.00828e-07
-3.13041e-09 5.39321e-06 -3.72707e-07
-4.97906e-09 6.46634e-06 -4.44833e-07
-3.29391e-09 5.3885e-06 -3.74088e-07
-7.52631e-09 4.31435e-06 -3.01645e-07
9.50462e-07 -1.39987e-09 1.19552e-08
9.57725e-07 -1.27584e-09 8.01953e-09
9.34502e-07 -2.25301e-09 1.53715e-08
9.42133e-07 -1.70722e-09 1.37334e-08
9.53555e-07 -2.3569e-09 1.48542e-08
9.61314e-07 -1.78336e-09 1.32439e-08
9.69948e-07 -1.46068e-09 1.16695e-08
9.7711e-07 -1.31585e-09 8.04226e-09
-3.29124e-09 6.46047e-06 -4.44953e-07
-2.20601e-09 5.38359e-06 -3.7337e-07
-6.96257e-09 4.31041e-06 -3.00855e-07
9.74424e-07 -2.44297e-09 1.48131e-08
9.82142e-07 -1.84249e-09 1.30947e-08
9.9096e-07 -1.5131e-09 1.16509e-08
9.98616e-07 -1.34945e-09 7.90366e-09
-1.76878e-09 6.45438e-06 -4.42968e-07
-1.06983e-09 5.37852e-06 -3.71719e-07
-6.32279e-09 4.30635e-06 -2.99063e-07
9.91858e-07 -2.529e-09 1.47542e-08
9.9952e-07 -1.90233e-09 1.27466e-08
1.00854e-06 -1.56445e-09 1.15528e-08
1.01637e-06 -1.38787e-09 7.83778e-09
2.3591e-10 6.44799e-06 -4.44864e-07
3.53491e-11 5.37314e-06 -3.73437e-07
-5.76407e-09 4.30204e-06 -2.99676e-07
1.01007e-06 -2.62871e-09 1.43017e-08
1.01768e-06 -1.96613e-09 1.23626e-08
1.0268e-06 -1.61508e-09 1.12563e-08
1.0348e-06 -1.42852e-09 7.71601e-09
3.9437e-10 6.44184e-06 -4.43666e-07
2.02483e-10 5.36802e-06 -3.73719e-07
-5.17769e-09 4.29787e-06 -2.99823e-07
1.03071e-06 -2.71545e-09 1.4225e-08
1.03816e-06 -2.02255e-09 1.2346e-08
1.0473e-06 -1.6637e-09 1.11045e-08
1.05542e-06 -1.47465e-09 7.72056e-09
1.04982e-06 -2.75786e-09 1.48223e-08
1.05793e-06 -2.08886e-09 1.18874e-08
1.06711e-06 -1.71213e-09 1.06815e-08
1.07536e-06 -1.50996e-09 7.69752e-09
2.73396e-10 6.43539e-06 -4.45202e-07
6.9659e-10 5.36262e-06 -3.75621e-07
-4.86746e-09 4.29353e-06 -3.00811e-07
-2.6216e-09 2.16083e-06 -1.50387e-07
-1.27522e-09 3.24063e-06 -2.26312e-07
-5.0941e-10 1.08033e-06 -7.52038e-08
-1.38278e-09 3.23779e-06 -2.26922e-07
-2.50266e-09 2.15887e-06 -1.50943e-07
-5.81376e-10 1.07938e-06 -7.54604e-08
9.62771e-07 -5.66222e-10 1.01101e-08
9.6616e-07 -3.28978e-10 8.11776e-09
9.67002e-07 -2.42709e-10 -2.41839e-09
9.82645e-07 -5.91843e-10 1.00789e-08
9.86094e-07 -3.39444e-10 8.05757e-09
9.86667e-07 -2.51166e-10 -2.50209e-09
-8.51429e-10 3.23483e-06 -2.26361e-07
-2.28779e-09 2.15689e-06 -1.50642e-07
-6.02328e-10 1.07838e-06 -7.52978e-08
1.00396e-06 -6.17214e-10 1.0271e-08
1.00747e-06 -3.59593e-10 8.08744e-09
1.00834e-06 -2.51714e-10 -2.42744e-09
-4.89412e-10 3.23176e-06 -2.25348e-07
-2.1095e-09 2.15484e-06 -1.50109e-07
-5.76887e-10 1.07736e-06 -7.5012e-08
1.02186e-06 -6.40162e-10 1.04224e-08
1.02541e-06 -3.77208e-10 8.10121e-09
1.0263e-06 -2.63257e-10 -2.33905e-09
1.08787e-11 3.22852e-06 -2.25853e-07
-1.84036e-09 2.15268e-06 -1.50437e-07
-5.53756e-10 1.07627e-06 -7.516e-08
1.04036e-06 -6.68821e-10 1.03278e-08
1.04394e-06 -3.88531e-10 8.14284e-09
1.04479e-06 -2.63352e-10 -2.3683e-09
-1.84169e-09 2.15059e-06 -1.50324e-07
2.63188e-10 3.22524e-06 -2.2633e-07
-5.70939e-10 1.07519e-06 -7.51172e-08
1.06105e-06 -6.91084e-10 1.0499e-08
1.06466e-06 -4.04175e-10 8.25194e-09
1.0655e-06 -2.74609e-10 -2.48768e-09
1.081e-06 -7.07861e-10 1.04843e-08
1.0846e-06 -4.01932e-10 8.40228e-09
1.08539e-06 -2.53923e-10 -2.34585e-09
-1.64089e-10 3.22208e-06 -2.2705e-07
-1.75847e-09 2.14841e-06 -1.50704e-07
-6.99299e-10 1.07413e-06 -7.52732e-08
-1.16575e-14 1.1298e-10 -7.89979e-12
-4.39254e-15 1.12267e-10 -7.86486e-12
5.28795e-15 1.11951e-10 -7.85689e-12
-5.17824e-09 4.28942e-06 -2.99847e-07
-1.07156e-09 6.42899e-06 -4.45642e-07
3.33914e-10 5.35733e-06 -3.75598e-07
1.07109e-06 -2.81664e-09 1.52293e-08
1.07982e-06 -2.15158e-09 1.17291e-08
1.08912e-06 -1.76746e-09 1.045e-08
1.0976e-06 -1.56833e-09 7.60284e-09
-5.26989e-11 6.42245e-06 -4.44997e-07
-4.43122e-09 4.28482e-06 -3.00621e-07
1.06146e-09 5.35184e-06 -3.74358e-07
1.08869e-06 -2.89152e-09 1.56605e-08
1.09803e-06 -2.21306e-09 1.12904e-08
1.10732e-06 -1.81618e-09 1.01346e-08