# vtk DataFile Version 3.0
vtk output
ASCII
DATASET POLYDATA
POINTS 9494 float
0.000750162 0.0874172 -0.0472372
0.0005765 0.0679234 -0.048285
0.0207583 0.0876224 -0.0479747
0.0407394 0.0878523 -0.0487283
0.0205863 0.0680662 -0.0486795
0.0405742 0.0682256 -0.0490724
0.0106549 0.0777249 -0.0482864
0.0306485 0.0779108 -0.0488677
0.0506284 0.0781051 -0.0493845
0.000421884 0.0484871 -0.0489374
0.0204233 0.0485769 -0.0491102
0.0404141 0.0486775 -0.0492637
0.010495 0.0582449 -0.0490214
0.0304922 0.0583673 -0.0492961
0.0504782 0.0584979 -0.0495341
0.000259349 0.0290868 -0.0491837
0.0202599 0.0291336 -0.049219
0.0402544 0.0291864 -0.0492451
0.0103389 0.0388155 -0.049394
0.0303378 0.0388868 -0.0494796
0.0503296 0.038963 -0.049547
0.0605507 0.0683676 -0.049458
0.0604015 0.0487652 -0.049433
0.0607039 0.0880422 -0.049515
0.0806663 0.0882215 -0.0501591
0.100626 0.0883945 -0.050519
0.0805344 0.0684806 -0.0498422
0.100504 0.0686038 -0.04999
0.0706039 0.0782341 -0.0499999
0.0905731 0.0783878 -0.0503177
0.110534 0.0785256 -0.050486
0.0803959 0.0488409 -0.0495825
0.100375 0.0489203 -0.0495984
0.0704709 0.0585827 -0.0498322
0.0904495 0.0586875 -0.0499493
0.11042 0.0587821 -0.0499815
0.0602543 0.0292331 -0.0493196
0.0802465 0.0292793 -0.049316
0.100234 0.0293217 -0.0492837
0.0703275 0.0390195 -0.0496462
0.0903138 0.0390821 -0.0496548
0.110295 0.0391385 -0.0496253
0.000891883 0.106982 -0.0459004
0.0208907 0.107248 -0.0471159
0.0408499 0.107555 -0.048374
0.0107949 0.0972678 -0.0473027
0.0307739 0.0975239 -0.04833
0.050739 0.097786 -0.0492673
0.00117755 0.146366 -0.0422043
0.00100766 0.126629 -0.0442378
0.010901 0.116915 -0.0460774
0.0209918 0.126972 -0.0460661
0.0409113 0.127377 -0.0479579
0.0308579 0.11724 -0.0476492
0.0507959 0.117587 -0.0491329
0.0110132 0.136664 -0.0445934
0.0210733 0.146841 -0.0448701
0.0409408 0.147324 -0.0474926
0.0309248 0.137074 -0.0468432
0.0508151 0.13752 -0.0489971
0.0607946 0.10782 -0.0495853
0.0807398 0.108045 -0.0506646
0.100695 0.108259 -0.0513361
0.0706968 0.0979724 -0.0502662
0.0906618 0.0981702 -0.050893
0.110622 0.0983428 -0.0512888
0.0608268 0.127712 -0.049693
0.0707317 0.117833 -0.0505759
0.0807429 0.127991 -0.0513193
0.100689 0.128248 -0.0523791
0.0906834 0.118074 -0.0516384
0.110643 0.118282 -0.0523313
0.0607981 0.147745 -0.0499461
0.0707118 0.137833 -0.0509961
0.0806809 0.148094 -0.0520967
0.100605 0.148395 -0.0536597
0.0906402 0.138123 -0.0525777
0.110595 0.138374 -0.0536382
0.120598 0.088537 -0.0507934
0.120482 0.0687025 -0.0500881
0.120359 0.048983 -0.0496047
0.140567 0.0886313 -0.0510192
0.160522 0.0887139 -0.0509625
0.180483 0.0887897 -0.0508102
0.140456 0.0687759 -0.0501867
0.160422 0.0688388 -0.0500966
0.180393 0.0688962 -0.0499471
0.130525 0.0786166 -0.05074
0.150482 0.0786922 -0.0507082
0.170442 0.0787597 -0.0505947
0.14034 0.0490348 -0.049627
0.16032 0.0490778 -0.0495344
0.180303 0.049117 -0.0494089
0.13041 0.0588443 -0.0500808
0.150381 0.0588998 -0.0500145
0.170354 0.0589489 -0.0499024
0.120224 0.0293578 -0.0492866
0.14021 0.0293856 -0.0492349
0.160198 0.02941 -0.0491658
0.180186 0.0294316 -0.0490847
0.130283 0.0391782 -0.0496268
0.150264 0.0392139 -0.0495597
0.170245 0.0392446 -0.0494748
0.200445 0.0887755 -0.0509427
0.2204 0.088799 -0.0508359
0.240363 0.0888238 -0.0507312
0.200349 0.0688977 -0.0500311
0.220314 0.068917 -0.0499382
0.240286 0.0689365 -0.0498533
0.190412 0.0787755 -0.0506611
0.210369 0.0787977 -0.0505638
0.230332 0.0788187 -0.0504713
0.200255 0.049128 -0.0494387
0.220233 0.0491418 -0.0493697
0.240215 0.0491555 -0.0493119
0.190317 0.0589705 -0.0499164
0.210286 0.0589881 -0.0498357
0.23026 0.0590043 -0.0497653
0.200157 0.0294445 -0.0490828
0.220144 0.0294525 -0.0490381
0.240133 0.0294599 -0.0489979
0.190217 0.0392651 -0.0494509
0.210197 0.0392776 -0.0493937
0.230179 0.0392883 -0.0493424
0.120639 0.108439 -0.0518083
0.12065 0.12846 -0.0531808
0.120584 0.148644 -0.054871
0.130591 0.0984598 -0.0517067
0.14062 0.108548 -0.0522665
0.160581 0.108639 -0.0523011
0.180551 0.108723 -0.0522063
0.150554 0.0985525 -0.0518048
0.170522 0.0986309 -0.0517504
0.130598 0.118433 -0.0529776
0.140613 0.128596 -0.0538705
0.160584 0.128687 -0.0540263
0.180568 0.128768 -0.0540068
0.150571 0.118535 -0.0532565
0.170549 0.118616 -0.0532877
0.130548 0.138559 -0.0545919
0.140542 0.148797 -0.0558424
0.160515 0.148895 -0.0561485
0.180505 0.148968 -0.0561948
0.15053 0.138669 -0.0550939
0.170518 0.138749 -0.055212
0.190493 0.0986654 -0.0518914
0.20051 0.108713 -0.0524462
0.220469 0.108726 -0.0523227
0.24044 0.108747 -0.0522309
0.210442 0.0986732 -0.0518155
0.23041 0.0986898 -0.0517204
0.190537 0.118666 -0.053508
0.20054 0.128764 -0.0543735
0.22051 0.128764 -0.0542283
0.240492 0.128775 -0.0541436
0.210487 0.11866 -0.0534741
0.230463 0.118668 -0.0533739
0.190542 0.138786 -0.0555346
0.200539 0.148947 -0.0566647
0.220512 0.148927 -0.0565499
0.240503 0.148928 -0.0564434
0.210499 0.138768 -0.0555664
0.230486 0.138766 -0.0554463
0.109463 0.220191 -0.060458
0.108958 0.241147 -0.0616763
0.118767 0.251887 -0.0636842
0.108422 0.262241 -0.0623684
0.118267 0.27309 -0.0642466
0.107931 0.283468 -0.062299
0.00135228 0.16618 -0.0399204
0.0111219 0.156508 -0.0428865
0.0211437 0.166801 -0.0435123
0.0409252 0.16737 -0.0470062
0.0309635 0.15701 -0.0459679
0.0507806 0.157566 -0.0489351
0.00177397 0.20599 -0.0343932
0.00153015 0.186067 -0.0373202
0.0112296 0.176457 -0.0408706
0.0211889 0.186857 -0.0418951
0.0408464 0.187521 -0.0463538
0.0309591 0.177055 -0.0449074
0.0506685 0.177736 -0.0487644
0.0113584 0.196476 -0.0385721
0.0212348 0.206996 -0.0399806
0.0309178 0.197247 -0.0436253
0.0407325 0.207771 -0.0454672
0.0505012 0.198023 -0.0484181
0.0115364 0.216541 -0.0359685
0.0308973 0.217528 -0.0420339
0.0503121 0.218419 -0.0478067
0.0606974 0.167907 -0.0501952
0.0706169 0.157966 -0.0515184
0.0805299 0.168332 -0.0530096
0.100432 0.168691 -0.0551809
0.0905129 0.158322 -0.0537392
0.110466 0.158625 -0.0552939
0.0605128 0.18819 -0.0503693
0.0704344 0.178246 -0.052062
0.0802732 0.188698 -0.0539137
0.100143 0.189123 -0.0567275
0.0902794 0.178666 -0.0549536
0.110227 0.179019 -0.0570444
0.0602547 0.20859 -0.0504754
0.0701661 0.198659 -0.0525381
0.0899551 0.199153 -0.0560857
0.109888 0.199559 -0.0587729
0.0799296 0.209213 -0.0546662
0.0997612 0.209718 -0.058097
0.0698389 0.219202 -0.0528421
0.089557 0.21981 -0.0570471
0.0020588 0.225951 -0.031197
0.011736 0.236617 -0.0330709
0.0213127 0.227191 -0.0377947
0.0405951 0.228184 -0.0442784
0.0308777 0.237854 -0.0401217
0.00278587 0.265803 -0.0237621
0.00238468 0.245909 -0.0276502
0.0214091 0.247395 -0.0352136
0.0500339 0.238891 -0.0470376
0.0404495 0.248631 -0.0426839
0.0119611 0.256708 -0.0298335
0.021553 0.26758 -0.0322609
0.0308413 0.258203 -0.0378863
0.0497899 0.259484 -0.0456493
0.0403413 0.2691 -0.0406421
0.0122813 0.276741 -0.0261813
0.0308949 0.278538 -0.0351146
0.049606 0.280111 -0.0436829
0.0599326 0.229121 -0.0502315
0.0794972 0.22988 -0.0552491
0.0992935 0.230495 -0.0593083
0.0595769 0.249711 -0.0496019
0.0592369 0.27035 -0.0484894
0.0694118 0.239858 -0.0528678
0.0790253 0.25065 -0.0553263
0.0890694 0.240622 -0.0577234
0.0987778 0.251388 -0.060038
0.0689787 0.260599 -0.0523601
0.0885599 0.261529 -0.0578718
0.0785526 0.271504 -0.0549212
0.0982699 0.27242 -0.060144
0.0686025 0.281396 -0.0512317
0.0880925 0.282554 -0.0573504
0.119711 0.210096 -0.0607748
0.159962 0.21037 -0.0637902
0.180159 0.21033 -0.0643209
0.140152 0.189579 -0.0604825
0.160232 0.189661 -0.0612809
0.180335 0.18966 -0.0616536
0.150274 0.17932 -0.0597823
0.170354 0.179352 -0.0602473
0.1299 0.199806 -0.0608567
0.139785 0.210284 -0.0627634
0.149999 0.199915 -0.0622327
0.17016 0.199949 -0.062882
0.200501 0.169208 -0.0594788
0.220513 0.169173 -0.0594098
0.24052 0.169144 -0.0593192
0.190194 0.199962 -0.0636859
0.210328 0.199928 -0.0640582
0.230447 0.199878 -0.0639087
0.200212 0.210347 -0.0652508
0.220354 0.210317 -0.0652828
0.240473 0.210259 -0.0652008
0.190381 0.179407 -0.0608223
0.200383 0.189675 -0.0623923
0.22045 0.189636 -0.0623725
0.240514 0.189603 -0.0623069
0.21043 0.179359 -0.061088
0.230488 0.179328 -0.0609687
0.119244 0.23087 -0.062519
0.139343 0.231143 -0.0649989
0.149632 0.220652 -0.0647322
0.169866 0.220668 -0.0656115
0.159571 0.231218 -0.0662577
0.179847 0.231182 -0.0669564
0.17923 0.273735 -0.0704215
0.128976 0.241493 -0.064797
0.149182 0.241631 -0.0667889
0.169494 0.241633 -0.0678985
0.138856 0.252184 -0.0666893
0.159163 0.252285 -0.0682063
0.17953 0.252259 -0.0690758
0.128462 0.26274 -0.0658583
0.148752 0.262959 -0.0681676
0.169145 0.263008 -0.0694794
0.138392 0.273565 -0.0675372
0.158782 0.27375 -0.0692913
0.129482 0.220524 -0.0630801
0.189981 0.220699 -0.066548
0.199975 0.231205 -0.0680666
0.210165 0.220654 -0.0670497
0.230338 0.220602 -0.0669407
0.220188 0.231177 -0.0681669
0.240368 0.231111 -0.068115
0.209952 0.24168 -0.0695761
0.230212 0.241632 -0.0695331
0.1997 0.252354 -0.0703379
0.220016 0.25233 -0.0705376
0.240275 0.252267 -0.0705015
0.189378 0.263022 -0.0707837
0.209739 0.26299 -0.0714599
0.230077 0.262961 -0.0714864
0.199475 0.273833 -0.0718469
0.219858 0.273806 -0.0721051
0.240187 0.273747 -0.0720749
0.189706 0.241697 -0.068991
0.120388 0.168946 -0.0567356
0.130442 0.158804 -0.0565734
0.140397 0.169112 -0.0581023
0.160418 0.169214 -0.0586348
0.180462 0.169276 -0.0588459
0.150446 0.158928 -0.0573333
0.170479 0.159006 -0.0576229
0.120115 0.189431 -0.0588397
0.130231 0.179214 -0.0586991
0.190495 0.159035 -0.0580484
0.210481 0.158996 -0.058211
0.230501 0.158991 -0.0581213
0.250288 0.0788014 -0.0504467
0.260303 0.088774 -0.0507594
0.280287 0.0887641 -0.0507497
0.30028 0.0887725 -0.050705
0.260235 0.0688979 -0.0498519
0.280227 0.0688928 -0.0498295
0.300226 0.0689013 -0.0497881
0.27026 0.078783 -0.0504404
0.290249 0.0787849 -0.0504093
0.260169 0.0491284 -0.0492874
0.280167 0.0491261 -0.0492642
0.300171 0.0491332 -0.049234
0.250211 0.0589877 -0.0497301
0.270199 0.0589817 -0.0497106
0.290193 0.0589848 -0.0496819
0.260105 0.0294451 -0.0489854
0.280102 0.0294452 -0.0489696
[...]
POINT_DATA 9494
VECTORS alpha float
7.0071e-06 0.000933573 4.46782e-05
4.19493e-06 0.000576495 1.63371e-05
2.98062e-06 0.000456536 1.14201e-05
7.90914e-07 0.000132639 3.54915e-07
1.67947e-06 0.000248805 2.82504e-06
2.33718e-07 3.5322e-05 -1.88115e-07
-0.000365004 -2.63226e-06 8.14009e-06
-0.000576198 -4.52052e-06 1.18144e-05
-0.000674716 -5.55918e-06 1.14757e-05
1.52646e-06 0.000213773 1.51335e-06
2.85566e-07 3.91906e-05 -1.67707e-07
-4.5299e-07 -6.16615e-05 9.35793e-07
-0.000373004 -1.55104e-06 3.3339e-06
-0.000587676 -2.75318e-06 4.68778e-06
-0.000686654 -3.48232e-06 4.29321e-06
-1.20037e-06 -0.000150796 2.4754e-06
-1.38516e-06 -0.000170068 3.7494e-06
-1.29072e-06 -0.000157233 4.30105e-06
-0.000375925 -6.6389e-07 6.15019e-07
-0.000591114 -1.21468e-06 7.32372e-07
-0.000689177 -1.57338e-06 4.3157e-07
-2.66853e-07 -4.28329e-05 9.09389e-07
-6.46182e-07 -9.09669e-05 2.25082e-06
3.20012e-08 6.40003e-06 -1.29378e-07
-1.44412e-07 -3.35504e-05 1.2122e-06
-9.4382e-08 -2.50836e-05 1.23168e-06
-3.24566e-07 -5.85945e-05 1.8791e-06
-1.99952e-07 -3.94861e-05 1.63587e-06
-0.00072484 -4.82723e-06 1.05815e-05
-0.000750138 -4.59182e-06 6.35887e-06
-0.000764543 -4.24182e-06 2.13673e-06
-5.45099e-07 -8.25283e-05 2.55804e-06
-3.27186e-07 -5.31342e-05 1.95052e-06
-0.000736145 -2.95681e-06 3.55858e-06
-0.000760516 -2.84475e-06 1.24883e-06
-0.000774303 -2.65066e-06 -9.44122e-07
-1.0935e-06 -0.00013744 4.21869e-06
-8.01448e-07 -0.000105102 3.56654e-06
-4.74759e-07 -6.59028e-05 2.36952e-06
-0.000737147 -1.31063e-06 1.25925e-07
-0.000760286 -1.26505e-06 -7.42742e-07
-0.000773325 -1.17968e-06 -1.5024e-06
7.38564e-06 0.0012809 8.35773e-05
2.88031e-06 0.000660073 2.33661e-05
6.97899e-07 0.0002292 1.45758e-06
-0.000351901 -3.73812e-06 1.49686e-05
-0.000556639 -6.27245e-06 2.24213e-05
-0.000653319 -7.52193e-06 2.27693e-05
1.01134e-05 0.001928 0.000187929
6.88686e-06 0.00161428 0.000131683
-0.00033376 -5.18077e-06 2.32423e-05
2.09273e-06 0.000856876 3.84023e-05
6.73481e-09 0.000323792 3.09865e-06
-0.000529119 -8.25742e-06 3.53411e-05
-0.000622627 -9.63675e-06 3.66805e-05
-0.000310403 -6.69829e-06 3.18411e-05
1.76912e-06 0.00104382 5.69462e-05
-9.92692e-07 0.000414908 5.55675e-06
-0.000493294 -1.03024e-05 4.92997e-05
-0.000582216 -1.16897e-05 5.20229e-05
9.83188e-08 5.60982e-05 -1.18706e-06
-5.36642e-09 -7.71326e-06 3.31146e-07
-1.98451e-10 -1.01341e-05 6.08616e-07
-0.000703627 -6.43789e-06 2.1292e-05
-0.000729567 -5.95537e-06 1.48594e-05
-0.000744456 -5.34122e-06 8.20441e-06
-2.00433e-07 0.000105612 -2.33376e-06
-0.000672217 -8.28319e-06 3.32663e-05
-6.55971e-08 1.85593e-05 -9.26536e-07
-2.2607e-08 5.1683e-06 -3.66477e-07
-0.000698681 -7.22166e-06 2.53384e-05
-0.000713991 -6.26799e-06 1.59523e-05
-8.80639e-07 0.000154301 -3.84979e-06
-0.000630493 -1.00899e-05 4.66517e-05
-3.55878e-07 4.48959e-05 -2.54483e-06
-1.85133e-07 2.06003e-05 -1.66019e-06
-0.000657143 -8.46103e-06 3.69999e-05
-0.000672774 -7.13057e-06 2.47397e-05
2.14974e-08 6.06852e-06 -3.6781e-07
-2.64563e-08 -5.47896e-06 2.69593e-07
-9.96267e-08 -1.67712e-05 6.81881e-07
1.48074e-07 4.09298e-05 -2.76717e-06
1.95165e-07 6.77555e-05 -4.74634e-06
1.76281e-07 8.1826e-05 -5.79852e-06
1.33344e-07 2.84442e-05 -1.48903e-06
2.07049e-07 5.3259e-05 -2.856e-06
2.03018e-07 6.58129e-05 -3.54053e-06
-0.000776125 -2.55594e-06 -3.42479e-08
-0.000788653 -2.39186e-06 -3.07259e-06
-0.00080308 -2.27354e-06 -5.58457e-06
8.73081e-08 1.57438e-05 -6.44169e-07
1.80682e-07 3.82056e-05 -1.56361e-06
1.91592e-07 4.90648e-05 -1.97834e-06
-0.000785932 -1.66535e-06 -1.49956e-06
-0.00079881 -1.57929e-06 -3.18153e-06
-0.000813981 -1.51269e-06 -4.61117e-06
-1.95907e-07 -2.77299e-05 9.95953e-07
1.84852e-08 2.89308e-06 -1.02576e-07
1.28983e-07 2.26788e-05 -7.83356e-07
1.5776e-07 3.16863e-05 -1.05911e-06
-0.000784659 -7.94607e-07 -1.43151e-06
-0.000797747 -7.51644e-07 -2.08396e-06
-0.000813496 -7.16251e-07 -2.64148e-06
2.99042e-07 8.37276e-05 -6.09688e-06
2.39847e-07 7.72752e-05 -5.63525e-06
1.75606e-07 6.67704e-05 -4.82831e-06
2.75111e-07 6.73265e-05 -3.73658e-06
2.16803e-07 6.15774e-05 -3.40292e-06
1.55781e-07 5.25383e-05 -2.86898e-06
-0.000818452 -7.48604e-07 -3.60232e-06
-0.000834848 -7.67503e-07 -3.46077e-06
-0.000850595 -8.18228e-07 -3.47967e-06
2.28198e-07 5.01724e-05 -2.09496e-06
1.77935e-07 4.51898e-05 -1.85544e-06
1.26331e-07 3.77234e-05 -1.51692e-06
-0.000830331 -5.05795e-07 -2.81774e-06
-0.000847669 -5.2939e-07 -2.48468e-06
-0.000864265 -5.69235e-07 -2.26989e-06
1.61522e-07 3.23705e-05 -1.07012e-06
1.24202e-07 2.82286e-05 -9.05154e-07
8.62116e-08 2.24483e-05 -6.99544e-07
-0.000830871 -2.47223e-07 -1.47012e-06
-0.000848951 -2.53881e-07 -1.39162e-06
-0.000866191 -2.68601e-07 -1.37057e-06
5.07574e-09 1.76718e-05 -1.31579e-06
-1.09165e-07 2.92286e-05 -2.59842e-06
-3.2294e-07 4.056e-05 -4.13953e-06
-0.000755924 -3.34687e-06 3.0426e-06
2.90742e-08 5.29588e-05 -4.55672e-06
-8.56722e-09 8.14004e-05 -7.29782e-06
-7.07898e-08 9.67758e-05 -8.81719e-06
-0.000768041 -2.85068e-06 -6.243e-07
-0.000781549 -2.69786e-06 -3.99372e-06
-0.00072525 -3.91876e-06 7.8288e-06
-1.904e-07 6.44703e-05 -6.73531e-06
-3.20689e-07 9.4155e-05 -1.02839e-05
-4.20981e-07 0.000110631 -1.2318e-05
-0.000736822 -2.94725e-06 2.9112e-06
-0.000749353 -2.71426e-06 -1.70259e-06
-0.000683532 -4.43525e-06 1.29744e-05
-4.88917e-07 7.53036e-05 -9.17586e-06
-6.99142e-07 0.000105839 -1.35278e-05
-8.20307e-07 0.000123213 -1.6127e-05
-0.000694364 -2.85308e-06 6.29908e-06
-0.00070573 -2.52711e-06 2.68033e-07
-0.000795712 -7.52224e-07 -5.66823e-06
1.88667e-07 9.90451e-05 -9.41554e-06
1.49611e-07 9.19718e-05 -8.76778e-06
1.05918e-07 8.01445e-05 -7.58158e-06
-0.000810715 -5.14576e-07 -4.21904e-06
-0.000825465 -7.62414e-07 -3.09555e-06
-0.000762229 -6.42582e-07 -7.1751e-06
-1.40012e-08 0.000113235 -1.31804e-05
-1.11502e-08 0.000105625 -1.23398e-05
-1.30655e-08 9.2618e-05 -1.07432e-05
-0.000775729 -1.24217e-07 -4.93705e-06
-0.000789318 -5.43068e-07 -2.80754e-06
-0.000717164 -4.57771e-07 -8.13309e-06
-3.17286e-07 0.000126061 -1.68717e-05
-2.36535e-07 0.000118012 -1.59014e-05
-1.78355e-07 0.000103984 -1.39207e-05
-0.000728948 3.16854e-07 -5.89086e-06
-0.00074108 -2.0959e-07 -3.18197e-06
-0.000412704 -7.0437e-06 5.39622e-05
-0.00032826 -6.96723e-06 5.13244e-05
-2.59917e-06 8.77347e-05 -4.13117e-06
-0.000238183 -6.28042e-06 4.30844e-05
-2.60112e-06 9.39076e-05 -1.01968e-06
-0.000144682 -4.7512e-06 2.93685e-05
1.08263e-05 0.00221655 0.000251595
-0.000282025 -8.04146e-06 3.99411e-05
-1.12251e-07 0.00121766 8.02592e-05
-3.03413e-06 0.000500996 9.8874e-06
-0.00044952 -1.2041e-05 6.32358e-05
-0.000532597 -1.32911e-05 6.79134e-05
2.04139e-05 0.0026942 0.000392712
1.26772e-05 0.00247366 0.000321122
-0.000249103 -9.0814e-06 4.63502e-05
-2.06573e-06 0.00137495 0.000108426
-5.46567e-06 0.000580473 1.67009e-05
-0.000398461 -1.34028e-05 7.42227e-05
-0.000474395 -1.44407e-05 8.06735e-05
-0.00021224 -9.70933e-06 4.9541e-05
-2.97844e-06 0.00151211 0.000142161
-0.00034117 -1.44712e-05 8.01664e-05
-7.72574e-06 0.000651852 2.66724e-05
-0.00040873 -1.51077e-05 8.83705e-05
-0.000171965 -9.75678e-06 4.85558e-05
-0.00027836 -1.4701e-05 7.94503e-05
-0.000336289 -1.51668e-05 8.90124e-05
-2.13318e-06 0.000201307 -4.65053e-06
-0.000579044 -1.15926e-05 6.10364e-05
-9.65186e-07 7.0885e-05 -4.14954e-06
-5.33192e-07 3.5919e-05 -3.0568e-06
-0.000605511 -9.61025e-06 5.01595e-05
-0.000621444 -8.02614e-06 3.58191e-05
-3.78137e-06 0.000245844 -4.25491e-06
-0.000518341 -1.24292e-05 7.31405e-05
-1.85287e-06 9.61011e-05 -5.30884e-06
-1.05879e-06 5.08582e-05 -4.29421e-06
-0.000544396 -1.02069e-05 6.09912e-05
-0.000560459 -8.32934e-06 4.50163e-05
-5.5734e-06 0.000287085 -2.01522e-06
-0.000449553 -1.27664e-05 8.07799e-05
-0.000474787 -1.04331e-05 6.76267e-05
-0.000490691 -8.11219e-06 5.14685e-05
-2.89779e-06 0.000120125 -5.48194e-06
-1.68377e-06 6.51838e-05 -4.9514e-06
-0.000373227 -1.27504e-05 8.19167e-05
-0.000397193 -1.03705e-05 6.90277e-05
2.85242e-05 0.00287277 0.000472008
-0.000129372 -8.93787e-06 4.32043e-05
-2.15097e-06 0.00162533 0.000183933
-9.32607e-06 0.000713377 4.34638e-05
-0.000211883 -1.37081e-05 7.14684e-05
4.8969e-05 0.00308712 0.000615585
3.72028e-05 0.00300463 0.000550346
2.28227e-08 0.0017125 0.000230406
-0.000259479 -1.41908e-05 8.17022e-05
-9.90072e-06 0.000763726 6.47237e-05
-8.5216e-05 -7.0069e-06 3.28602e-05
5.18552e-06 0.00177084 0.000276919
-0.000142846 -1.11235e-05 5.56609e-05
-0.000179187 -1.19753e-05 6.4847e-05
-8.31993e-06 0.000801332 8.92848e-05
-4.06311e-05 -3.95781e-06 1.76242e-05
-7.30555e-05 -6.81485e-06 3.20061e-05
-9.76018e-05 -7.92983e-06 3.95967e-05
-7.1347e-06 0.00032414 5.11087e-06
-3.93079e-06 0.00014249 -3.67779e-06
-2.31215e-06 7.86454e-05 -4.40385e-06
-8.15993e-06 0.000356325 1.45929e-05
-7.90412e-06 0.000382969 2.70296e-05
-0.000291706 -1.23575e-05 7.67161e-05
-4.71088e-06 0.000162812 2.81027e-07
-0.000313814 -1.00957e-05 6.53515e-05
-2.80349e-06 9.10494e-05 -2.43077e-06
-0.000205866 -1.0695e-05 6.2613e-05
-0.000225363 -8.71805e-06 5.39906e-05
-4.84638e-06 0.00018072 6.22791e-06
-2.93949e-06 0.000102043 7.58061e-07
-0.000118001 -7.54234e-06 4.03269e-05
-0.000134018 -6.32987e-06 3.59676e-05
-1.88246e-06 7.14544e-05 -7.1691e-06
-2.89721e-06 0.000133363 -1.83177e-05
-2.79393e-06 0.00015234 -2.15454e-05
-1.69627e-06 9.43958e-05 -1.24258e-05
-2.03306e-06 0.000125499 -1.78717e-05
-2.02909e-06 0.000144071 -2.10709e-05
-0.000580277 -1.52134e-06 1.59486e-05
-0.000588523 -2.56928e-07 8.78589e-06
-0.000502003 -4.19622e-06 3.0113e-05
-2.41757e-06 0.000102302 -1.28523e-05
-0.00050959 -1.19847e-06 1.81029e-05
-0.000516189 2.63634e-07 1.08367e-05
-8.4735e-07 0.000137608 -2.00485e-05
-5.77505e-07 0.000129219 -1.90812e-05
-3.62368e-07 0.000114334 -1.68018e-05
-0.000523348 4.29488e-08 -2.82876e-06
-0.000528232 1.13861e-06 -6.75144e-06
-0.000533063 1.45805e-06 -1.98725e-06
-1.98805e-06 0.000155953 -2.25701e-05
-1.36123e-06 0.000147296 -2.18557e-05
-8.30735e-07 0.000131181 -1.94005e-05
-0.000597213 8.51398e-08 -4.63363e-06
-1.38076e-06 0.000147514 -2.2243e-05
-9.40416e-07 0.000138909 -2.13211e-05
-5.84107e-07 0.000123319 -1.88314e-05
-0.000604724 9.91737e-07 -6.34947e-06
-0.000612379 7.70611e-07 -1.60915e-06
-2.26758e-06 8.02235e-05 -6.25405e-06
-2.92593e-06 0.000109188 -1.12648e-05
-0.00043002 -9.20726e-07 1.95451e-05
-0.000434575 9.15643e-07 1.23732e-05
-3.37791e-06 0.000139673 -1.62967e-05
-3.2606e-06 0.000158811 -1.92485e-05
-2.94998e-06 0.000165466 -7.86551e-06
-0.000337843 -3.57062e-06 3.29362e-05
-0.000342962 -9.30618e-07 1.89817e-05
-0.000345449 7.80451e-07 1.2352e-05
-3.00913e-06 0.000114417 -7.49154e-06
-3.46145e-06 0.000144191 -1.17308e-05
-3.30598e-06 0.000163294 -1.41867e-05
-0.000246176 -3.55893e-06 2.86331e-05
-0.000249612 -1.27193e-06 1.66479e-05
-0.00025004 7.13594e-08 1.11005e-05
-2.92071e-06 0.00011769 -3.16511e-06
-3.28747e-06 0.000146177 -6.18113e-06
-0.000423054 -3.63171e-06 3.28701e-05
-0.000439688 1.18817e-06 -2.39987e-07
-2.35521e-06 0.000162735 -2.02139e-05
-0.000442576 1.65251e-06 -5.98192e-06
-0.000445228 1.42643e-06 -1.45458e-06
-1.65795e-06 0.000154146 -1.97712e-05
-1.02861e-06 0.000137669 -1.75943e-05
-0.000349381 1.47354e-06 -4.66734e-06
-0.00034963 1.39093e-06 -1.01667e-06
-2.52404e-06 0.000167897 -1.50762e-05
-1.73138e-06 0.000159476 -1.49861e-05
-1.0189e-06 0.000142868 -1.34575e-05
-0.000250817 9.13427e-07 2.78763e-06
-0.000249534 1.20699e-06 -3.22688e-06
-0.000247999 9.085e-07 -6.43062e-07
-2.18518e-06 0.000169942 -8.69963e-06
-1.41716e-06 0.000161846 -8.87579e-06
-7.35377e-07 0.000145428 -7.98558e-06
-0.000348232 1.63253e-06 1.38088e-06
-7.43004e-07 5.14981e-05 -5.56804e-06
-0.000632347 -4.67682e-06 2.0213e-05
-1.02093e-06 8.52963e-05 -1.11654e-05
-1.33078e-06 0.000116266 -1.61089e-05
-1.4458e-06 0.00013429 -1.9046e-05
-0.000642348 -2.68228e-06 1.15781e-05
-0.000652418 -2.24875e-06 5.03468e-06
-1.23993e-06 6.18314e-05 -6.76846e-06
-0.000571418 -4.4057e-06 2.60515e-05
-0.000661815 1.28329e-07 -6.25948e-06
-0.000671933 5.69401e-07 -5.48393e-06
-0.000682356 -3.00392e-07 -1.09383e-06
-0.000864957 2.87323e-07 -4.69594e-07
1.78508e-07 5.57248e-05 -4.23544e-06
1.16441e-07 4.62686e-05 -3.5455e-06
7.16232e-08 3.90688e-05 -2.98504e-06
1.43187e-07 4.33219e-05 -2.46053e-06
9.37385e-08 3.57155e-05 -2.03959e-06
5.90895e-08 3.01912e-05 -1.717e-06
-0.00087769 2.40145e-07 -6.29023e-07
-0.00088849 -3.70685e-07 -1.80131e-06
1.04989e-07 3.04483e-05 -1.26131e-06
6.94269e-08 2.47798e-05 -1.02423e-06
4.57062e-08 2.09931e-05 -8.59854e-07
-0.000879424 5.35182e-07 -2.20285e-07
-0.000892598 1.231e-07 -7.14716e-07
-0.000903838 -3.06975e-07 -1.25997e-06
6.32956e-08 1.72252e-05 -5.40179e-07
4.26504e-08 1.35832e-05 -4.20018e-07
3.05233e-08 1.15929e-05 -3.52817e-07
-0.000881823 2.5032e-07 -2.08051e-07
-0.000895332 3.78585e-08 -4.14174e-07
-0.000906793 -1.83177e-07 -6.33504e-07
-0.000897337 -3.33712e-07 -9.25417e-07
-0.000913006 -8.49593e-08 -3.51284e-07
8.73717e-08 3.38675e-05 -2.65247e-06
6.03404e-08 2.99871e-05 -2.36257e-06
3.8579e-08 2.67124e-05 -2.09139e-06
6.76115e-08 2.64156e-05 -1.53757e-06
4.73561e-08 2.37168e-05 -1.38563e-06
3.08258e-08 2.14312e-05 -1.24305e-06
-0.000904346 3.86642e-07 5.28983e-07
-0.000910809 -1.61597e-07 -5.49022e-07
-0.000916284 -7.17795e-07 -1.69382e-06
4.81161e-08 1.86829e-05 -7.83133e-07
3.53533e-08 1.71935e-05 -7.19721e-07
2.46179e-08 1.59205e-05 -6.59844e-07
-0.00092054 1.99556e-07 7.82768e-08
-0.000927282 -1.87231e-07 -3.2274e-07
-0.000933004 -5.80171e-07 -7.59084e-07
2.84245e-08 1.07817e-05 -3.31112e-07
2.31524e-08 1.05175e-05 -3.20039e-07
1.82653e-08 1.02655e-05 -3.08277e-07
-0.000916074 2.51744e-07 1.04037e-07
-0.000924164 6.2242e-08 -2.04531e-08
-0.000931013 -1.30008e-07 -1.34643e-07
-0.000936826 -3.25139e-07 -2.63083e-07
-0.000838638 3.85952e-07 -1.56393e-06
1.77318e-07 6.74327e-05 -6.71258e-06
1.11479e-07 5.62584e-05 -5.65872e-06
6.29528e-08 4.74824e-05 -4.77184e-06
-0.000850744 5.77847e-07 4.12931e-08
-0.000861089 -4.30093e-07 -4.75458e-07
-0.00080129 6.61362e-07 -2.51422e-06
-0.00075169 8.5359e-07 -7.22418e-07
1.40345e-07 7.83808e-05 -9.5546e-06
7.92931e-08 6.56146e-05 -8.08722e-06
3.35431e-08 5.53582e-05 -6.82159e-06
-0.000812549 1.0498e-06 5.51083e-07
-0.000822295 -2.75062e-07 6.42997e-07
7.09249e-08 8.84042e-05 -1.23532e-05
3.27701e-08 7.41813e-05 -1.05475e-05
-3.55534e-09 6.25682e-05 -8.89913e-06
-0.000761538 1.52536e-06 8.15882e-07
-0.00077042 3.7248e-08 1.23936e-06
-0.000869068 -2.76581e-07 -2.88386e-06
9.87563e-08 4.09306e-05 -4.21743e-06
6.68056e-08 3.59191e-05 -3.7296e-06
4.12685e-08 3.16957e-05 -3.27622e-06
-0.000875552 6.98531e-07 6.55961e-07
-0.000881723 -1.74778e-07 5.76813e-08
-0.00088695 -1.05792e-06 -6.12368e-07
-0.000829846 -5.10401e-07 -3.34817e-07
-0.000777317 -4.27785e-07 1.32738e-06
1.04084e-07 4.75212e-05 -6.00422e-06
6.88275e-08 4.14285e-05 -5.27759e-06
4.07622e-08 3.62978e-05 -4.60599e-06
-0.000835056 9.05371e-07 8.70836e-07
-0.000840816 -1.84362e-07 6.09993e-07
-0.000845685 -1.28454e-06 2.63418e-07
9.08117e-08 5.35439e-05 -7.80046e-06
6.53199e-08 4.64366e-05 -6.83566e-06
3.7014e-08 4.04605e-05 -5.92658e-06
-0.000781446 1.00481e-06 8.69368e-07
-0.000786662 -1.9884e-07 8.30486e-07
-0.000791067 -1.41345e-06 6.71688e-07
5.22989e-08 2.3515e-05 -1.86688e-06
3.5074e-08 2.01084e-05 -1.61943e-06
2.07471e-08 1.64162e-05 -1.32447e-06
3.93018e-08 1.90953e-05 -1.12898e-06
2.64131e-08 1.64735e-05 -9.85218e-07
1.55378e-08 1.35266e-05 -8.09374e-07
-0.000919679 1.05012e-07 -4.88772e-08
-0.000923245 -5.27111e-07 -1.1203e-06
-0.000926071 -1.16468e-06 -2.23465e-06
2.7518e-08 1.44686e-05 -6.07794e-07
1.89228e-08 1.26587e-05 -5.36465e-07
1.14301e-08 1.04887e-05 -4.44766e-07
-0.000936864 1.12303e-07 -6.28318e-07
-0.000940667 -3.59786e-07 -1.06322e-06
-0.00094369 -8.36033e-07 -1.52851e-06
1.76547e-08 9.70355e-06 -2.93936e-07
1.27377e-08 8.71716e-06 -2.64073e-07
8.12614e-09 7.34145e-06 -2.21606e-07
-0.00094126 5.72377e-08 -5.69706e-07
-0.000945236 -1.68403e-07 -6.64457e-07
-0.000948408 -3.96586e-07 -7.78706e-07
1.48455e-08 1.24802e-05 -1.00363e-06
5.8137e-09 8.38107e-06 -6.78974e-07
8.25594e-10 4.20104e-06 -3.38584e-07
2.68264e-12 -8.87924e-09 7.029e-10
1.17212e-08 1.03189e-05 -6.16057e-07
4.63596e-09 6.94307e-06 -4.16884e-07
6.92094e-10 3.4843e-06 -2.0808e-07
1.3517e-12 -4.9834e-09 2.92668e-10
-0.000928136 5.27548e-07 2.38719e-06
-0.000929591 -8.41623e-08 1.13804e-06
-0.000930332 -6.99627e-07 -1.23816e-07
8.28091e-09 8.04394e-06 -3.39065e-07
3.36274e-09 5.42762e-06 -2.29532e-07
5.7144e-10 2.72703e-06 -1.14739e-07
9.11812e-13 -4.54578e-09 1.88677e-10
-0.000945906 3.22443e-07 1.58567e-06
-0.000947447 -1.28303e-07 9.36816e-07
-0.000948229 -5.81201e-07 2.80323e-07
5.36131e-09 5.68185e-06 -1.68097e-07
2.28171e-09 3.85168e-06 -1.1424e-07
4.69048e-10 1.93861e-06 -5.74409e-08
5.04076e-13 -4.66514e-09 1.37602e-10
-0.000950764 1.39507e-07 6.75873e-07
-0.000952368 -8.66455e-08 3.94966e-07
-0.000953176 -3.13546e-07 1.09783e-07
6.36675e-08 2.7675e-05 -2.87907e-06
4.19162e-08 2.35203e-05 -2.48628e-06
2.4164e-08 1.9123e-05 -2.02824e-06
-0.000889684 1.83985e-07 -3.29979e-08
-0.000893006 -7.09837e-07 -6.46971e-07
-0.000895632 -1.60899e-06 -1.30195e-06
7.50925e-08 3.14883e-05 -4.01573e-06
4.8486e-08 2.66288e-05 -3.45256e-06
2.71567e-08 2.15762e-05 -2.80842e-06
-0.000847618 2.29505e-07 1.79407e-08
-0.000850602 -8.328e-07 -2.64025e-07
-0.000852947 -1.90109e-06 -5.94299e-07
7.9315e-08 3.4931e-05 -5.12131e-06
5.58215e-08 2.94208e-05 -4.39774e-06
3.06145e-08 2.37772e-05 -3.56925e-06
-0.000792228 3.94774e-07 2.53075e-07
-0.000794847 -7.39773e-07 2.11783e-07
-0.000796906 -1.88189e-06 1.13852e-07
1.83158e-08 1.45013e-05 -1.53474e-06
7.03732e-09 9.72354e-06 -1.03638e-06
8.9164e-10 4.86781e-06 -5.15966e-07
6.08346e-12 -1.69096e-08 1.75968e-09
-0.000897501 7.36228e-07 1.72202e-06
-0.000898873 -1.36239e-07 1.08878e-06
-0.000899578 -1.01419e-06 4.36831e-07
2.16034e-08 1.63257e-05 -2.1178e-06
8.12454e-09 1.09292e-05 -1.42775e-06
8.8737e-10 5.46121e-06 -7.09486e-07
1.4026e-11 -3.32403e-08 4.23989e-09
-0.000854578 9.82402e-07 1.34763e-06
-0.000855814 -7.23564e-08 1.15329e-06
-0.000856456 -1.13445e-06 9.37472e-07
2.30966e-08 1.79632e-05 -2.68608e-06
9.32201e-09 1.20116e-05 -1.81162e-06
9.57876e-10 5.99611e-06 -8.98618e-07
2.04798e-11 -4.43172e-08 6.51625e-09
-0.000798298 1.09026e-06 9.99749e-07
-0.000799399 -3.36918e-08 9.46167e-07
-0.000799985 -1.16665e-06 8.6699e-07
-7.16703e-08 9.75908e-05 -1.48448e-05
-4.94229e-08 8.20748e-05 -1.28205e-05
-4.86048e-08 6.92344e-05 -1.0835e-05
-0.000539318 -8.8213e-07 2.12225e-06
-4.2308e-07 0.000112801 -1.71295e-05
-0.00054342 1.46678e-06 1.88586e-07
-0.000547789 1.67188e-06 3.10431e-06
-2.72762e-07 9.52545e-05 -1.49807e-05
-1.9269e-07 8.03683e-05 -1.27383e-05
-0.000620035 8.32333e-08 -1.39053e-06
-2.23847e-07 0.000105677 -1.66261e-05
-1.44484e-07 8.90489e-05 -1.44632e-05
-1.08181e-07 7.51164e-05 -1.22563e-05
-0.000626369 1.62571e-06 1.42463e-07
-0.000632483 1.03907e-06 2.69788e-06
5.58941e-08 5.91132e-05 -9.41723e-06
5.50289e-08 5.10589e-05 -8.22906e-06
3.61923e-08 4.42886e-05 -7.09755e-06
-0.000551678 2.73185e-07 4.72527e-06
1.11045e-08 6.40878e-05 -1.05909e-05
3.82408e-08 5.51657e-05 -9.19748e-06
3.1632e-08 4.76667e-05 -7.9132e-06
-0.00055369 -8.52349e-07 -5.11415e-07
-0.0005562 -5.85805e-07 2.03297e-06
-0.000558225 -2.99192e-07 4.39113e-06
-4.23683e-08 6.83533e-05 -1.09485e-05
1.37191e-08 5.86639e-05 -9.46842e-06
1.63641e-08 5.05162e-05 -8.13099e-06
-0.000638023 -1.56315e-06 3.62642e-06
-0.000640213 -2.00776e-07 -5.93443e-09
-0.000643826 -7.52445e-07 2.06243e-06
-0.00064683 -1.29548e-06 3.96339e-06
-0.000449456 -2.74512e-07 2.64642e-06
-5.11609e-07 0.000118712 -1.54335e-05
-0.000451754 1.20271e-06 -2.30042e-07
-0.00045464 1.12301e-06 3.48874e-06
-3.27502e-07 0.000100422 -1.36778e-05
-2.22122e-07 8.4723e-05 -1.16111e-05
-0.000351403 6.84604e-07 2.1124e-06
-0.000247597 1.39204e-07 2.03037e-06
-0.000352505 5.93604e-07 -4.82676e-08
-0.000353876 8.19089e-07 3.05565e-06
-5.11163e-07 0.000123449 -1.16794e-05
-2.85044e-07 0.000104615 -1.04196e-05
-1.56421e-07 8.83129e-05 -8.87076e-06
-2.71761e-07 0.000126071 -6.88322e-06