# vtk DataFile Version 3.0
vtk output
ASCII
DATASET POLYDATA
POINTS 7373 float
0.00571998 0.403749 0.0273508
0.00651541 0.423245 0.022764
0.0703269 0.816571 -0.179734
0.0832287 0.803405 -0.182363
0.0966354 0.790579 -0.18287
0.0895011 0.814082 -0.192042
0.103479 0.800941 -0.192467
0.0152481 0.434817 0.0269329
0.0074775 0.442781 0.0176175
0.00853429 0.462035 0.0120721
0.00968692 0.481131 0.0061559
0.0109686 0.500047 -0.000184709
0.0122624 0.518827 -0.00675712
0.016299 0.454469 0.0215154
0.0174721 0.473772 0.0156768
0.0187903 0.492873 0.00935993
0.0203012 0.511791 0.00253694
0.0250364 0.466185 0.0255634
0.0264231 0.485714 0.0192051
0.0279674 0.50484 0.0123698
0.0355223 0.497721 0.022235
0.0374212 0.516897 0.0146379
0.0449136 0.509939 0.0246687
0.0547662 0.522132 0.0260283
0.021891 0.530555 -0.00469389
0.0297163 0.523747 0.00498001
0.0395236 0.535736 0.00636176
0.047138 0.529131 0.0162675
0.0649193 0.534522 0.026528
0.0135504 0.537546 -0.0136056
0.0147642 0.556214 -0.0206547
0.0234667 0.549183 -0.0122697
0.0315972 0.542489 -0.00302128
0.0495227 0.547899 0.0071599
0.0573053 0.541221 0.0167409
0.0755881 0.546554 0.0256543
0.0158976 0.574914 -0.0278254
0.0169749 0.593671 -0.0353502
0.0178763 0.612583 -0.0428376
0.0334713 0.561018 -0.0114438
0.0417197 0.554331 -0.00246399
0.0600141 0.559818 0.00659485
0.0677079 0.553388 0.0163857
0.0864471 0.558518 0.0239584
0.0786502 0.56512 0.0144166
0.0249615 0.567707 -0.0201608
0.0263822 0.586246 -0.028375
0.0276805 0.604872 -0.0367575
0.0438831 0.572669 -0.0119243
0.0520117 0.566281 -0.00265516
0.0706779 0.571729 0.00518583
0.0977833 0.56994 0.0206058
0.0897003 0.576732 0.0115334
0.0352699 0.579448 -0.0202817
0.0369521 0.597745 -0.0296532
0.0384033 0.616046 -0.0392659
0.0544518 0.584433 -0.0132347
0.0627392 0.577992 -0.00428766
0.0736076 0.589602 -0.00696135
0.0817743 0.583122 0.00211282
0.101077 0.587726 0.00712456
0.0459574 0.590843 -0.0219106
0.0654006 0.59575 -0.0160515
0.0847953 0.600453 -0.0111665
0.0929498 0.594288 -0.00195374
0.104211 0.604884 -0.00728578
0.0478153 0.608861 -0.0323026
0.0567281 0.60223 -0.0243864
0.0677272 0.613142 -0.0284121
0.076355 0.606901 -0.0199242
0.0959036 0.611187 -0.0163123
0.0586457 0.619827 -0.0361365
0.0873975 0.617318 -0.0251606
0.0196749 0.710776 -0.0772939
0.0294788 0.700569 -0.0787571
0.0287504 0.720727 -0.0859105
0.038687 0.710529 -0.0873522
0.0804343 0.673802 -0.076625
0.100103 0.674844 -0.0798463
0.0397217 0.690915 -0.078391
0.0500521 0.681439 -0.0764592
0.0699333 0.68194 -0.0816535
0.0895749 0.682329 -0.0860572
0.0488743 0.700393 -0.0872077
0.0469838 0.719864 -0.0971051
0.059429 0.691017 -0.0851095
0.078918 0.690981 -0.0910883
0.0983011 0.69084 -0.0960123
0.0574456 0.709748 -0.0967974
0.0680976 0.699975 -0.0947719
0.0872586 0.699204 -0.101185
0.0952155 0.707529 -0.111579
0.0651965 0.718565 -0.107176
0.076236 0.708808 -0.104939
0.0836764 0.716796 -0.115604
0.102616 0.715493 -0.122361
0.0546678 0.729147 -0.107516
0.0724694 0.727422 -0.117983
0.0908449 0.725231 -0.126545
0.0904958 0.780996 -0.172997
0.0195463 0.731302 -0.0826283
0.0371966 0.730567 -0.0954459
0.0444808 0.739738 -0.106039
0.0613431 0.737721 -0.118584
0.0789085 0.735225 -0.129131
0.0974548 0.733051 -0.1375
0.0193063 0.751995 -0.0873871
0.0189367 0.77286 -0.0914083
0.0186176 0.793752 -0.0943272
0.0183631 0.814705 -0.0960462
0.0773966 0.793352 -0.172434
0.103901 0.769189 -0.171802
0.0277917 0.741133 -0.092218
0.0511298 0.74892 -0.117076
0.067679 0.746533 -0.129773
0.0853638 0.743451 -0.140099
0.104243 0.740897 -0.148162
0.026579 0.761738 -0.0977229
0.0251756 0.782669 -0.102258
0.0238055 0.803808 -0.105399
0.0281216 0.81394 -0.116733
0.0352351 0.750822 -0.102608
0.0568345 0.757611 -0.1285
0.0733792 0.754289 -0.141033
0.0915024 0.751229 -0.150947
0.032966 0.771423 -0.10866
0.0304971 0.792527 -0.113499
0.0346213 0.80217 -0.124979
0.065299 0.806212 -0.169888
0.0414455 0.759968 -0.113749
0.0622352 0.766364 -0.13994
0.0791108 0.762565 -0.152025
0.0975809 0.760303 -0.161844
0.0380987 0.780699 -0.120119
0.0383075 0.812029 -0.136468
0.0470457 0.769187 -0.125113
0.0671467 0.774318 -0.151092
0.0845769 0.771641 -0.163001
0.0426792 0.790145 -0.131667
0.0465693 0.799427 -0.143233
0.0517996 0.778133 -0.136668
0.0721727 0.783835 -0.162123
0.0503763 0.80898 -0.154473
0.0563812 0.786883 -0.148221
0.0605497 0.796009 -0.159176
0.0185878 0.631728 -0.0502345
0.0286972 0.623534 -0.0455319
0.0492283 0.626798 -0.0432487
0.078618 0.623771 -0.0335665
0.0983728 0.62751 -0.0315802
0.0694809 0.630277 -0.0413802
0.0894167 0.633727 -0.0398975
0.0604819 0.672822 -0.0729204
0.029443 0.642463 -0.0541122
0.0394377 0.634492 -0.0491972
0.05018 0.644821 -0.0542902
0.0599509 0.637402 -0.0482257
0.0801325 0.640471 -0.0475992
0.0999751 0.643467 -0.0473714
0.0197308 0.690531 -0.071157
0.0298377 0.680808 -0.0708829
0.0906307 0.666007 -0.0706791
0.0192133 0.651191 -0.0574912
0.0195241 0.670797 -0.0645251
0.0401337 0.653127 -0.0590215
0.0606844 0.65507 -0.060517
0.0705454 0.647292 -0.0547382
0.0905566 0.649988 -0.05521
0.0706961 0.664412 -0.0682299
0.0401854 0.671804 -0.0686992
0.0298107 0.661491 -0.0626721
0.0504346 0.662972 -0.0655086
0.0808282 0.657205 -0.0621225
0.100647 0.659407 -0.0635997
0.110572 0.778572 -0.181657
0.110171 0.81092 -0.202359
0.117186 0.787548 -0.191835
0.124189 0.766467 -0.179138
0.159206 0.753865 -0.17867
0.180363 0.752034 -0.181459
0.201275 0.749947 -0.183804
0.124942 0.798055 -0.201106
0.167139 0.762686 -0.188147
0.188354 0.760029 -0.19099
0.131674 0.776055 -0.188884
0.132967 0.809232 -0.209709
0.145629 0.764559 -0.184391
0.196962 0.769738 -0.200033
0.139366 0.785543 -0.198105
0.153601 0.774164 -0.193744
0.17551 0.772195 -0.197244
0.161771 0.78364 -0.202655
0.18349 0.780695 -0.206399
0.205645 0.779084 -0.208748
0.147667 0.796113 -0.206889
0.170383 0.794271 -0.21113
0.192433 0.791534 -0.214637
0.178636 0.804502 -0.219643
0.201581 0.802907 -0.222422
0.156213 0.80734 -0.215173
0.188125 0.816589 -0.226978
0.253765 0.736195 -0.178812
0.273929 0.734637 -0.180082
0.293882 0.733075 -0.181124
0.209719 0.758583 -0.193041
0.213518 0.740214 -0.175882
0.233845 0.738496 -0.177318
0.282929 0.742832 -0.189717
0.214704 0.789695 -0.217044
0.211152 0.815017 -0.229657
0.222003 0.748365 -0.185474
0.242587 0.746631 -0.186875
0.262681 0.744415 -0.188519
0.291918 0.751174 -0.199106
0.218432 0.76791 -0.202067
0.230651 0.756758 -0.194719
0.251059 0.754377 -0.196502
0.271631 0.752738 -0.197917
0.239581 0.766035 -0.203733
0.260106 0.763649 -0.205613
0.280743 0.762054 -0.206988
0.301049 0.760528 -0.208268
0.227292 0.777539 -0.210801
0.223995 0.801162 -0.224875
0.248152 0.775045 -0.212777
0.269213 0.773443 -0.214364
0.289882 0.771921 -0.215768
0.278548 0.783931 -0.222674
0.299186 0.782533 -0.224087
0.233519 0.813331 -0.232137
0.236431 0.787825 -0.219177
0.257451 0.785441 -0.221199
0.245304 0.798653 -0.227399
0.266882 0.797134 -0.229126
0.287952 0.795707 -0.230561
0.255 0.811123 -0.234636
0.276528 0.80971 -0.23634
0.297482 0.80843 -0.237864
0.46122 0.718806 -0.177141
0.480817 0.718509 -0.17685
0.500037 0.718108 -0.176237
0.302908 0.741277 -0.19077
0.363408 0.720921 -0.174468
0.382764 0.719966 -0.175296
0.3136 0.731506 -0.182101
0.333351 0.730111 -0.18282
0.353089 0.729162 -0.183578
0.372704 0.728212 -0.184364
0.392206 0.727528 -0.185249
0.310238 0.770356 -0.217198
0.308616 0.794338 -0.232129
0.322716 0.73951 -0.191821
0.342646 0.738237 -0.192608
0.362373 0.737375 -0.193379
0.381898 0.736309 -0.194257
0.311935 0.749487 -0.200309
0.331952 0.747901 -0.20131
0.351912 0.746864 -0.202102
0.371684 0.746006 -0.202951
0.391388 0.74513 -0.203816
0.321198 0.758725 -0.209584
0.341345 0.757478 -0.210588
0.361274 0.75661 -0.211394
0.381016 0.755448 -0.212315
0.400959 0.75508 -0.213065
0.31825 0.806782 -0.239868
0.31965 0.780694 -0.225771
0.330538 0.768763 -0.218546
0.350721 0.767698 -0.21947
0.370657 0.766845 -0.220369
0.390589 0.765933 -0.221261
0.34003 0.779572 -0.226981
0.360174 0.778715 -0.227926
0.380155 0.77752 -0.228934
0.400246 0.777195 -0.229647
0.369692 0.79115 -0.235903
0.389854 0.790254 -0.236859
0.329189 0.792757 -0.233839
0.349582 0.791862 -0.234961
0.338857 0.805886 -0.241283
0.379416 0.804065 -0.243387
0.399629 0.803812 -0.244129
0.359198 0.805187 -0.242291
0.402408 0.71968 -0.176063
0.421952 0.719328 -0.176802
0.441593 0.719073 -0.177117
0.431529 0.726786 -0.186468
0.451223 0.726564 -0.18669
0.470891 0.72634 -0.186613
0.490523 0.726083 -0.186244
0.40168 0.735955 -0.19502
0.411793 0.727188 -0.185976
0.421411 0.735541 -0.195745
0.441171 0.735236 -0.196074
0.46091 0.735045 -0.196182
0.48061 0.734849 -0.196043
0.411147 0.744736 -0.204516
0.431047 0.744328 -0.205065
0.450851 0.74406 -0.205318
0.470625 0.743929 -0.205352
0.490355 0.743812 -0.205181
0.420855 0.754624 -0.213763
0.440749 0.754243 -0.21414
0.460601 0.75414 -0.214289
0.480405 0.754044 -0.214263
0.410536 0.765554 -0.221911
0.430567 0.765158 -0.222482
0.450493 0.764878 -0.222773
0.470376 0.764835 -0.222863
0.490205 0.764811 -0.222812
0.409962 0.789949 -0.237532
0.420309 0.776781 -0.230326
0.44033 0.77635 -0.230775
0.460289 0.776337 -0.230947
0.480188 0.776336 -0.231021
0.430121 0.789559 -0.238106
0.450152 0.789271 -0.238452
0.470127 0.789312 -0.238571
0.490039 0.789365 -0.238607
0.419849 0.80348 -0.24482
0.439973 0.803012 -0.245354
0.460026 0.803067 -0.245492
0.480009 0.803131 -0.245569
0.429765 0.817976 -0.251292
0.449867 0.817681 -0.251662
0.469919 0.817766 -0.251738
0.489899 0.81787 -0.251778
0.500037 0.734651 -0.195664
0.109147 0.581162 0.0162626
0.106947 0.621282 -0.0227625
0.112393 0.598605 0.00164503
0.115334 0.615273 -0.0137662
0.117374 0.573912 0.0252321
0.120639 0.591675 0.0106659
0.123748 0.608597 -0.00498352
0.128843 0.584824 0.0197681
0.13201 0.602088 0.00416975
0.134871 0.61858 -0.0124559
0.140337 0.594927 0.0130369
0.148694 0.587794 0.0220345
0.168571 0.590124 0.0234781
0.18846 0.592226 0.024022
0.20829 0.593475 0.0240623
0.143311 0.611709 -0.00345608
0.151648 0.604982 0.00566887
0.160121 0.597685 0.014498
0.17127 0.607317 0.00664184
[...]
POINT_DATA 7373
VECTORS alpha float
-0.0001035 -0.00306702 0.000692429
-0.000121944 -0.00298955 0.000750202
-0.000365109 5.07332e-05 0.000273562
-2.53622e-05 8.04024e-05 -2.85273e-05
-0.00050452 6.03947e-05 0.000229889
-0.000429848 4.78902e-05 0.000223409
-2.67634e-05 8.83496e-05 -3.63859e-05
-8.14101e-05 -1.67061e-05 -6.44913e-05
-0.000139389 -0.00286702 0.000797133
-0.000150514 -0.00270766 0.00081741
-0.000155636 -0.00251239 0.000815255
-0.000151534 -0.00228671 0.000786751
-0.000138957 -0.00203459 0.000732802
-0.000118089 -2.75595e-05 -9.40397e-05
-0.000153811 -3.90366e-05 -0.000120307
-0.000188836 -5.05407e-05 -0.000141298
-0.000223553 -6.08922e-05 -0.000155256
-9.54181e-05 -0.00160532 0.00049253
-0.0001107 -0.00149609 0.000515081
-0.000117934 -0.00136782 0.000517331
-0.000288625 -8.23771e-05 -0.00021156
-0.000343076 -0.000101182 -0.000232319
-7.02227e-05 -0.000677134 0.000278346
-0.000401315 -0.00011485 -0.000241086
-0.000257667 -6.91407e-05 -0.000160117
-0.000117105 -0.00122326 0.000503721
-0.000396393 -0.000117545 -0.000238943
-7.3719e-05 -0.000613373 0.000283298
-4.71665e-05 -0.00034111 0.000172472
-0.000119889 -0.00175811 0.000659898
-9.6979e-05 -0.00146325 0.000565832
-0.000290769 -7.47611e-05 -0.000155841
-0.000108312 -0.00106372 0.00047419
-7.19849e-05 -0.000542065 0.000278457
-0.000462743 -0.000135304 -0.000246178
-0.000502362 -0.000133753 -0.000218592
-7.18091e-05 -0.00115174 0.000454287
-4.72685e-05 -0.000824594 0.000328885
-2.34877e-05 -0.00048275 0.000191951
-9.20838e-05 -0.000893732 0.00042537
-0.000448262 -0.000128326 -0.000231145
-0.000521386 -0.0001503 -0.000236051
-4.82628e-05 -0.000307158 0.000176927
-3.01008e-05 -0.000176298 0.000111822
-0.000562575 -0.000148756 -0.000208507
-0.000321703 -7.71174e-05 -0.000141508
-0.000349252 -7.5221e-05 -0.000117788
-0.000371865 -6.87866e-05 -8.4314e-05
-0.000496538 -0.000133168 -0.000208762
-6.46395e-05 -0.000465353 0.000262874
-4.51918e-05 -0.000270543 0.000175408
-0.000588027 -0.000133402 -0.000164138
-2.9172e-05 -0.000158445 0.000114876
-7.11503e-05 -0.000716644 0.000359259
-4.86587e-05 -0.000533222 0.00027871
-2.50502e-05 -0.00034297 0.000184476
-5.26608e-05 -0.000385931 0.000236217
-0.000575002 -0.000158124 -0.00021115
-3.86047e-05 -0.000232484 0.000166645
-0.000616023 -0.000157571 -0.000183045
-0.000639121 -0.000141902 -0.000141858
-0.000539671 -0.000130842 -0.000171603
-0.000622479 -0.00015533 -0.000170379
-0.000661762 -0.000155171 -0.000145584
-2.575e-05 -0.000139656 0.000113695
-0.00068185 -0.000140797 -0.000109752
-0.000574815 -0.000118726 -0.000121655
-3.76175e-05 -0.000303255 0.000198663
-0.000660679 -0.000140608 -0.000117786
-2.90289e-05 -0.000193017 0.000150326
-2.02808e-05 -0.000120647 0.000107912
-2.15494e-05 -0.000219301 0.000151185
-0.000698167 -0.00014393 -9.73588e-05
-1.53188e-05 0.00135212 -0.000395889
-0.000346658 -2.70401e-06 0.000148773
-0.000310228 7.35681e-06 0.000186218
-4.69661e-05 0.000673698 -0.000296355
1.91583e-06 -3.31477e-05 2.85673e-05
3.33228e-06 -4.46742e-05 4.56056e-05
-1.8775e-05 0.000461768 -0.000223896
-0.000579418 -2.01613e-05 0.000156215
-0.000669632 -2.16861e-05 0.000163759
-0.000711707 -2.51095e-05 0.000147851
-0.000540045 4.64341e-06 0.000225487
-0.000485539 2.49647e-05 0.000281505
-1.0774e-05 0.000129781 -8.44583e-05
-1.13058e-06 9.33817e-06 -7.62494e-06
3.73032e-06 -2.49722e-05 2.42281e-05
-2.91096e-05 0.00022547 -0.000133882
-0.000630394 1.03042e-05 0.000235353
-0.000679654 7.7724e-06 0.000210075
7.97752e-07 -3.6519e-06 3.2463e-06
-0.000575467 3.62485e-05 0.000293767
-9.93146e-06 5.4721e-05 -4.09223e-05
-0.00063409 3.70733e-05 0.00026331
-0.000672426 2.94009e-05 0.000217874
-5.38123e-05 0.000323709 -0.000170439
-2.36113e-05 0.0001032 -6.83161e-05
-5.41205e-06 1.98713e-05 -1.56447e-05
-2.03798e-05 5.9858e-05 -2.87492e-05
-2.97603e-05 0.00171237 -0.000434565
-8.15065e-05 0.000883999 -0.000343677
-0.000419843 3.84835e-05 0.000323512
-0.00050847 5.42172e-05 0.000339618
-0.00057731 5.9949e-05 0.000306589
-0.000629084 5.59622e-05 0.000250346
-4.18271e-05 0.00205687 -0.000424585
-4.67167e-05 0.00236675 -0.000382431
-4.3769e-05 0.00263853 -0.000295872
-3.48857e-05 0.00286764 -0.000158398
-0.000442007 6.65802e-05 0.000289061
-0.000569658 6.50337e-05 0.000223642
-0.000265865 1.39475e-05 0.000214586
-8.23215e-05 0.000423859 -0.000188762
-4.0924e-05 0.000154827 -8.72951e-05
-1.44628e-05 4.62017e-05 -3.09837e-05
-7.50633e-06 2.25009e-05 -1.72737e-05
-0.000216879 1.70821e-05 0.000229544
-0.000166853 1.47555e-05 0.000230702
-0.00012048 9.31562e-06 0.000216942
-0.000181718 0.00163061 -0.000187871
-0.000119457 0.00109115 -0.000356418
-0.000433515 6.29114e-05 0.00036631
-0.000512002 7.596e-05 0.000330894
-0.000575978 7.29279e-05 0.000271929
-0.000150838 0.0012888 -0.000335263
-0.000173528 0.00146984 -0.000278647
-0.000200219 3.27428e-05 0.000332293
-4.37258e-05 0.000142456 -4.17968e-05
-0.000346172 4.53604e-05 0.000346978
-5.89778e-05 0.000210967 -9.59607e-05
-2.50491e-05 7.61909e-05 -4.13596e-05
-1.39135e-05 4.01964e-05 -2.48642e-05
-0.000271415 4.29681e-05 0.00034961
-0.000141981 0.000715107 -0.00012322
-0.000108912 0.000524247 -0.000188146
-0.000440164 7.92174e-05 0.000340244
-0.000513304 7.45777e-05 0.000287807
-0.000130255 0.000623076 -0.000165049
-0.00027692 5.22844e-05 0.000360475
-0.000354257 6.18607e-05 0.000373991
-3.55082e-05 0.000109055 -4.46188e-05
-8.65124e-05 0.00032826 -7.39631e-05
-7.55082e-05 0.000269495 -9.18843e-05
-0.000363333 6.70052e-05 0.000337763
-4.88617e-06 -0.000129465 5.05158e-05
-0.000387189 -5.85836e-05 -4.21999e-05
-0.000598723 -0.000100159 -5.93868e-05
-1.81073e-05 -0.000152937 0.000127184
-1.35316e-05 -0.000101799 9.76142e-05
-0.00068641 -0.000118369 -5.50375e-05
-0.000721968 -0.000121004 -4.26831e-05
-1.34283e-06 3.82876e-05 -2.64019e-05
-0.000393691 -4.57883e-05 4.31604e-06
-7.41974e-06 -0.000149618 8.10493e-05
-0.000609198 -7.57167e-05 9.3263e-06
-8.33627e-06 -0.000135408 9.56506e-05
-8.13159e-06 -0.000113392 9.82667e-05
-6.37833e-06 -8.25739e-05 8.3421e-05
1.37778e-06 0.000978335 -0.00032124
-0.000373266 -1.54629e-05 0.000103036
-0.000729742 -6.03681e-05 8.46894e-05
6.27621e-06 0.000234202 -8.79844e-05
7.51907e-06 0.00060444 -0.000214679
1.08938e-06 4.94068e-05 -2.63195e-05
-8.72493e-07 -4.98597e-05 3.51232e-05
-0.000697935 -8.96715e-05 1.50074e-05
-0.000733432 -9.56218e-05 2.0737e-05
-0.00069231 -5.62532e-05 8.90685e-05
-2.64644e-06 0.000253118 -0.000130453
-0.000389098 -3.07438e-05 5.42931e-05
-0.000602859 -4.83853e-05 8.32992e-05
-7.42922e-07 -7.37087e-05 6.47048e-05
-3.92309e-07 -6.37648e-05 6.57843e-05
-2.36552e-05 7.15665e-05 -3.91577e-05
-0.000479761 4.00395e-05 0.000168978
-0.000552052 4.87806e-05 0.000171211
-0.000610706 5.06971e-05 0.000164349
-3.40325e-05 0.000116563 -9.42601e-05
-3.42595e-05 0.000132999 -0.000112187
-2.94103e-05 0.000134599 -0.000117575
-3.49056e-05 0.000126057 -5.79161e-05
-0.000642738 4.65416e-05 8.7032e-05
-0.000648308 4.25554e-05 6.20675e-05
-3.26001e-05 0.000105931 -6.4179e-05
-0.000501411 3.82112e-05 0.000126386
-0.00063141 4.74183e-05 0.000119364
-3.26785e-05 0.000161984 -0.000113759
-0.000573424 4.59926e-05 0.000126539
-3.80869e-05 0.000139112 -8.96361e-05
-3.81576e-05 0.000158589 -0.000107034
-0.000582012 4.52748e-05 9.41637e-05
-0.000589086 3.58743e-05 6.69996e-05
-0.000584499 4.31658e-05 5.60582e-05
-4.00361e-05 0.000163377 -8.07169e-05
-3.96088e-05 0.000187059 -9.69102e-05
-3.38825e-05 0.000192962 -0.000104176
-0.000514926 2.77565e-05 6.60466e-05
-0.000507425 3.46035e-05 5.43325e-05
-0.000509066 3.7911e-05 9.4224e-05
-3.27801e-05 0.000219455 -8.72642e-05
-0.000705838 5.25304e-05 4.82746e-05
-0.000708767 5.54853e-05 4.06992e-05
-0.000710778 5.44758e-05 3.44168e-05
-0.000647583 4.96157e-05 5.3381e-05
-0.000697396 5.39563e-05 4.6779e-05
-0.000701632 5.91382e-05 4.28914e-05
-9.326e-06 7.89908e-05 -7.53906e-05
-2.64167e-05 0.000182329 -0.000101205
-2.57539e-05 0.00020885 -8.55946e-05
-2.27644e-05 0.000125495 -0.000112208
-1.70865e-05 0.000110482 -0.000100904
-1.27937e-05 9.40908e-05 -8.80885e-05
-0.000646772 4.93336e-05 3.6298e-05
-2.52905e-05 0.000151887 -0.00010929
-0.000647343 5.38718e-05 4.63353e-05
-0.000647866 5.09065e-05 4.76987e-05
-0.000647584 5.14876e-05 4.1801e-05
-1.87664e-05 0.000134785 -9.92784e-05
-1.39328e-05 0.000116037 -8.74315e-05
-1.00495e-05 9.80556e-05 -7.49428e-05
-7.11545e-06 8.33144e-05 -6.41321e-05
-0.000580956 4.80794e-05 4.69834e-05
-0.000499363 3.75994e-05 4.72633e-05
-0.000578293 4.422e-05 4.61562e-05
-0.00057422 4.34234e-05 4.11992e-05
-0.000570354 4.08711e-05 3.71546e-05
-1.02776e-05 0.000120169 -7.09647e-05
-7.12773e-06 0.000102168 -6.06513e-05
-1.88631e-05 0.000187896 -7.91171e-05
-1.93515e-05 0.000163107 -9.26663e-05
-1.43537e-05 0.000141576 -8.23244e-05
-0.000496467 3.55979e-05 4.10471e-05
-0.00048903 3.43021e-05 3.80748e-05
-0.000482304 3.15015e-05 3.43802e-05
-1.36411e-05 0.000164863 -7.07756e-05
-9.59027e-06 0.00014099 -6.10172e-05
-6.58757e-06 0.000120137 -5.23117e-05
-1.80283e-07 9.76021e-06 -1.22196e-05
-4.33719e-08 4.91072e-06 -6.13168e-06
-1.15819e-11 1.23793e-08 -1.53366e-08
-6.58423e-06 6.65763e-05 -6.43327e-05
-2.17561e-06 3.34379e-05 -4.06827e-05
-1.66052e-06 2.87535e-05 -3.52633e-05
-0.000714804 4.75404e-05 3.35021e-05
-0.000717855 4.3354e-05 2.81661e-05
-0.000719061 3.62759e-05 3.14366e-05
-0.000721198 2.70408e-05 2.71942e-05
-0.000725575 1.2225e-05 2.79708e-05
-0.000568546 3.61535e-05 3.59457e-05
-0.000477651 2.55902e-05 3.34966e-05
-4.5966e-06 5.66481e-05 -5.56206e-05
-3.3907e-06 4.89218e-05 -4.85406e-05
-2.4197e-06 4.25275e-05 -4.22939e-05
-1.79433e-06 3.65221e-05 -3.65777e-05
-0.000648495 4.32442e-05 3.4909e-05
-0.000649884 3.65306e-05 3.24545e-05
-0.000649683 3.05556e-05 3.1714e-05
-0.000649972 2.27051e-05 2.75811e-05
-0.000654384 1.25606e-05 2.48207e-05
-4.89621e-06 7.10664e-05 -5.55897e-05
-3.54081e-06 6.13729e-05 -4.84465e-05
-2.47283e-06 5.32829e-05 -4.20821e-05
-1.8136e-06 4.57568e-05 -3.6352e-05
-1.2527e-06 3.82424e-05 -3.05488e-05
-4.45492e-06 0.000103245 -4.53025e-05
-4.85246e-06 8.76499e-05 -5.25444e-05
-0.00057 2.81536e-05 3.23191e-05
-0.000568544 2.53027e-05 2.769e-05
-0.000566734 1.81948e-05 2.44734e-05
-0.000571246 1.01409e-05 2.10736e-05
-3.44066e-06 7.5676e-05 -4.57159e-05
-2.35505e-06 6.55838e-05 -3.96204e-05
-1.66255e-06 5.63339e-05 -3.42158e-05
-1.14613e-06 4.70821e-05 -2.87092e-05
-0.000474495 1.39998e-05 2.22882e-05
-0.000478288 7.20431e-06 1.70418e-05
-0.000480292 1.92149e-05 2.8813e-05
-0.00047741 1.77188e-05 2.48811e-05
-3.07129e-06 8.91313e-05 -3.92758e-05
-1.40257e-06 6.60753e-05 -2.93754e-05
-9.6095e-07 5.52646e-05 -2.46089e-05
-2.06937e-06 7.71274e-05 -3.38976e-05
-1.14637e-06 2.40455e-05 -2.97687e-05
-7.05676e-07 1.93698e-05 -2.40578e-05
-4.08902e-07 1.45771e-05 -1.82138e-05
-0.00072918 9.63344e-06 1.13945e-05
-0.000729408 7.59246e-06 2.62697e-06
-0.000729077 8.89572e-06 -8.33348e-06
-0.000728178 1.01759e-05 -1.90883e-05
-1.23372e-06 3.05285e-05 -3.08027e-05
-0.00072712 1.21925e-05 2.09751e-05
-7.57333e-07 2.4594e-05 -2.48633e-05
-4.40642e-07 1.8517e-05 -1.88217e-05
-1.98034e-07 1.23897e-05 -1.26098e-05
-5.05955e-08 6.23446e-06 -6.3201e-06
-0.000654823 1.15121e-05 1.81818e-05
-0.000656826 9.29682e-06 9.88803e-06
-0.000656634 4.4342e-06 4.50752e-06
-0.000655937 4.12948e-06 -2.32033e-06
-0.000654791 3.67579e-06 -9.00608e-06
-7.61823e-07 3.08195e-05 -2.4637e-05
-4.44746e-07 2.32289e-05 -1.86669e-05
-2.03104e-07 1.55425e-05 -1.2491e-05
-5.43744e-08 7.81828e-06 -6.24924e-06
-0.000571002 1.02971e-05 1.56865e-05
-0.00057207 7.90485e-06 9.90638e-06
-0.000571682 1.43789e-06 4.61205e-06
-0.000570718 9.71627e-07 5.20138e-07
-0.000569466 3.78841e-07 -3.46087e-06
-0.000477183 7.6043e-06 1.46413e-05
-6.94232e-07 3.80012e-05 -2.31183e-05
-4.10132e-07 2.87006e-05 -1.75314e-05
-1.93667e-07 1.91936e-05 -1.17138e-05
-5.65877e-08 9.64288e-06 -5.84731e-06
-0.000477671 7.0877e-06 9.76016e-06
-0.000477187 -9.26612e-07 3.76712e-06
-0.000476035 -1.11689e-06 1.80456e-06
-0.000474765 -1.42628e-06 -4.9767e-08
-5.72369e-07 4.46459e-05 -1.98144e-05
-3.47014e-07 3.37608e-05 -1.50548e-05
-1.67902e-07 2.25543e-05 -1.00356e-05
-5.2053e-08 1.1305e-05 -4.99518e-06
-0.000372988 4.10291e-06 7.40042e-06
-0.000372306 -1.44252e-06 1.72139e-06
-0.000371099 -1.73939e-06 1.04089e-06
-0.000369896 -2.10307e-06 4.41542e-07
-7.62952e-12 1.56774e-08 -1.57468e-08
-1.7548e-05 -9.30102e-05 7.36183e-05
-0.000713439 -0.00013118 -7.04852e-05
-1.5573e-05 -8.17825e-05 7.35553e-05
-1.23403e-05 -7.04054e-05 7.02693e-05
-0.000605504 -0.000111484 -0.000118844
-0.00065335 -0.000119019 -9.96576e-05
-0.000691941 -0.000118835 -7.25651e-05
-1.04182e-05 -5.68837e-05 4.81912e-05
-8.64136e-06 -4.64888e-05 4.5047e-05
-6.22039e-06 -3.65325e-05 3.94967e-05
-0.000665579 -9.65401e-05 -6.3061e-05
-6.75363e-06 -3.98645e-05 3.52183e-05
-5.28834e-06 -3.38849e-05 3.09187e-05
-4.66763e-06 -3.34458e-05 3.12794e-05
-4.23784e-06 -3.44923e-05 3.28751e-05
-0.000700988 -9.82425e-05 -4.22978e-05
-4.68951e-06 -2.71459e-05 2.75527e-05
-0.00067887 -7.83096e-05 -3.35492e-05
-2.92642e-06 -1.83609e-05 1.92791e-05
-0.000695955 -5.39994e-05 -8.78649e-06
-2.26957e-06 -1.5975e-05 1.71986e-05
-0.00071239 -3.2529e-05 6.18875e-06
-2.49013e-06 -1.55463e-05 1.77189e-05
-0.000712472 -7.81532e-05 -1.81816e-05
-0.000728487 -5.27084e-05 1.89455e-06
-0.000744703 -3.04413e-05 1.44277e-05
-6.84906e-07 -4.59938e-06 5.43005e-06
-2.02684e-06 -1.65648e-05 1.81596e-05
-0.000726141 -2.83214e-05 1.49401e-05
-0.00075957 -2.72322e-05 2.38786e-05
-3.59014e-06 -3.48102e-05 3.38158e-05
-2.97548e-06 -3.34889e-05 3.30306e-05
-2.42227e-06 -3.04361e-05 3.04589e-05
-1.83386e-06 -2.63526e-05 2.66132e-05
-1.80984e-06 -1.76353e-05 1.97867e-05
-0.000739572 -2.78741e-05 2.58678e-05
-0.000752585 -2.575e-05 2.91959e-05
-0.000764156 -2.03635e-05 2.50717e-05
-0.000773277 -2.19624e-05 2.47067e-05
-0.00077377 -2.49671e-05 3.13621e-05
-1.59188e-06 -1.7936e-05 2.04545e-05
-1.3577e-06 -1.69177e-05 1.96259e-05
-1.03536e-06 -1.48394e-05 1.74007e-05
-0.000789103 -1.95604e-05 3.52136e-05
-0.000801724 -1.60173e-05 3.20194e-05
-0.000811296 -1.80397e-05 3.2514e-05
-1.25095e-06 -2.16962e-05 2.22264e-05
-6.9439e-07 -1.20906e-05 1.43643e-05
-0.000781174 -2.52265e-05 2.73919e-05
-0.000820305 -2.0895e-05 3.38388e-05
-7.79493e-07 -1.71471e-05 1.79116e-05
-5.35692e-07 -1.32457e-05 1.40228e-05
-3.50411e-07 -1.0094e-05 1.0785e-05
-2.33567e-07 -7.66284e-06 8.25244e-06
-0.000787087 -2.10365e-05 2.20405e-05
-0.000792838 -1.82301e-05 1.43068e-05
-0.000798092 -1.92311e-05 1.85457e-05
-0.000802077 -1.71793e-05 1.63524e-05
-4.13999e-07 -9.16719e-06 1.10919e-05
-0.00082778 -1.55346e-05 2.65673e-05
-2.68202e-07 -6.57649e-06 8.06256e-06
-1.56023e-07 -4.50724e-06 5.57496e-06
-9.15705e-08 -2.99497e-06 3.74277e-06
-0.000834269 -1.72124e-05 2.09933e-05
-0.000839834 -1.75509e-05 2.32993e-05
-0.000844206 -1.66188e-05 2.04025e-05
-1.44257e-07 -5.81507e-06 6.2949e-06
-4.86396e-08 -1.97733e-06 2.48781e-06
-8.54479e-08 -4.37325e-06 4.75673e-06
-0.000758616 2.48624e-06 4.76006e-06
-0.000759194 5.90578e-06 1.69103e-06
-0.000805987 -1.64577e-05 1.32521e-05
-5.12514e-08 -3.1525e-06 3.4577e-06
-2.52552e-08 -2.05877e-06 2.26494e-06
-8.40935e-09 -1.0215e-06 1.11921e-06
2.58066e-11 6.07061e-09 -6.57668e-09
-0.000810012 -8.85398e-06 6.38904e-06
-0.000812021 2.46274e-07 7.73409e-06
-0.000813317 2.98805e-06 4.32848e-06
-0.000813972 5.94289e-06 9.72233e-07
-0.000848892 -1.35522e-05 1.5289e-05
-2.60747e-08 -1.31759e-06 1.66732e-06
-1.43821e-08 -8.73099e-07 1.11395e-06
-6.62274e-09 -5.43833e-07 6.96239e-07
-2.05914e-09 -2.63341e-07 3.35354e-07
2.13668e-11 6.07104e-09 -7.62313e-09
-0.000853368 -7.93901e-06 1.03868e-05
-0.000855337 6.89263e-07 7.55307e-06
-0.000856709 3.21831e-06 3.44387e-06
-0.000857436 6.04893e-06 -6.06559e-07
-0.000730444 -2.704e-05 0.000125764
-0.000706623 1.93952e-06 0.000175204
2.81228e-06 -1.71384e-05 1.90503e-05
1.32438e-06 -5.57854e-06 5.67841e-06
2.31043e-06 -2.77799e-05 3.24343e-05
-0.000697943 2.3012e-05 0.000165357
-0.00074767 -5.32132e-05 6.66072e-05
-0.000739069 -2.81928e-05 0.000102054
-0.000722015 -4.07135e-06 0.000139087
1.52253e-07 -1.72667e-06 2.24312e-06
-1.16134e-06 6.86635e-06 -8.53865e-06
-3.95753e-06 1.63634e-05 -1.87207e-05
-0.000752087 -4.44963e-05 5.24111e-05
-1.84955e-06 2.17248e-05 -3.05359e-05
-0.000759066 -3.37774e-05 4.82019e-05
-3.04555e-06 3.75049e-05 -5.56145e-05
-0.000770234 -2.24897e-05 4.54335e-05
-0.000713768 1.94761e-05 0.000122115
-0.00074632 -2.20116e-05 7.44054e-05
-0.000754615 -1.61132e-05 6.25726e-05
-0.000765924 -9.51499e-06 5.34305e-05
-3.22386e-06 4.45163e-05 -6.84914e-05
-0.000733959 -2.5292e-07 9.69339e-05
-5.10176e-06 3.08431e-05 -4.20066e-05
-7.36946e-06 4.78877e-05 -6.87997e-05
-7.69941e-06 5.56865e-05 -8.32202e-05
-9.87737e-06 4.11022e-05 -5.20429e-05
-0.00074378 5.30165e-07 7.75319e-05
-1.32555e-05 5.99661e-05 -8.00549e-05
-0.000754962 3.70435e-06 6.34851e-05
-1.36805e-05 6.88763e-05 -9.57821e-05
-0.000767229 1.36122e-05 5.68416e-05
-0.000726921 1.80428e-05 9.1935e-05
-0.000738689 2.11031e-05 7.0914e-05
-0.000749587 2.88607e-05 5.57628e-05
-2.02133e-05 7.55185e-05 -8.8946e-05
-2.06268e-05 8.66313e-05 -0.000105996
-0.000785039 -8.40747e-06 4.55692e-05
-0.000779766 3.19315e-06 5.06714e-05
-1.78514e-05 8.65518e-05 -0.000110417
-6.81303e-06 5.54832e-05 -8.54178e-05
-1.20257e-05 6.88359e-05 -9.88285e-05
-2.83781e-06 4.43935e-05 -7.01581e-05
-5.97213e-08 1.6015e-05 -2.75357e-05
-0.000801453 2.88369e-06 4.49014e-05
-0.000795122 1.5441e-05 4.69248e-05
-0.000780457 2.483e-05 5.30027e-05
-0.000760818 4.41621e-05 4.27902e-05
-0.000817665 9.52013e-06 4.39944e-05
-1.66338e-06 3.32187e-05 -5.53338e-05
-0.000833811 2.30614e-05 3.60532e-05
-0.000847347 2.22207e-05 4.03947e-05
-0.000859587 2.19437e-05 4.1747e-05
-1.12489e-06 2.68379e-05 -4.61256e-05
-8.43595e-07 2.17595e-05 -3.83202e-05
-2.26694e-06 3.97186e-05 -6.43928e-05
-0.000809956 2.44386e-05 4.50731e-05
-0.00082405 3.57466e-05 3.53931e-05
-0.000836958 3.45665e-05 4.02178e-05
-0.000848691 3.16549e-05 4.32292e-05
-5.38815e-06 5.00067e-05 -7.91855e-05
-3.99991e-06 4.22917e-05 -6.88648e-05
-0.00080528 4.56644e-05 3.74984e-05
-2.73189e-06 3.44895e-05 -5.8005e-05
-2.04497e-06 2.81614e-05 -4.84364e-05
-0.000817216 4.40988e-05 4.00511e-05
-0.000827812 3.7213e-05 4.54269e-05
-0.000761359 5.078e-05 3.51967e-05
-0.000794225 3.51631e-05 4.54244e-05
-9.5211e-06 6.24772e-05 -9.24824e-05
-7.04767e-06 5.35168e-05 -8.13611e-05
-5.14237e-06 4.39144e-05 -6.89885e-05
-3.82077e-06 3.60829e-05 -5.78467e-05
-0.000755618 5.25355e-05 4.07125e-05
-0.000771128 5.57579e-05 3.55573e-05
-0.000779621 4.10686e-05 5.27722e-05
-0.00079026 4.34686e-05 4.63111e-05
-0.000799602 3.83481e-05 4.56325e-05
-1.09963e-05 6.90273e-05 -9.15998e-05
-1.40083e-05 7.96158e-05 -0.000103653
-8.19271e-06 5.76494e-05 -7.8802e-05
-6.05086e-06 4.76857e-05 -6.6484e-05
-2.20493e-06 7.45624e-06 -6.74136e-06
-0.000693641 4.40564e-05 5.77986e-05
-2.837e-05 8.72834e-05 -6.6631e-05
-8.16216e-06 2.71081e-05 -2.75802e-05
-1.57216e-05 5.38591e-05 -6.012e-05
-0.000706105 3.72287e-05 9.93531e-05
-0.000719071 3.79167e-05 6.85925e-05
-0.000726843 4.21261e-05 5.11761e-05
-0.000665606 5.08713e-05 0.000188401
-0.000623355 6.35273e-05 0.000208947
-0.000688986 3.91399e-05 0.000138676
-2.2115e-05 6.96931e-05 -6.54416e-05
-2.83282e-05 0.000109124 -0.000112116
-2.76024e-05 9.55431e-05 -9.45375e-05
-1.88671e-05 5.54496e-05 -3.83177e-05
-0.000687971 4.56447e-05 7.56996e-05
-1.33183e-05 4.02753e-05 -3.44606e-05
-0.000675036 4.74387e-05 0.000104889
-0.000655518 5.06876e-05 0.000150983
-8.02104e-06 6.23945e-05 -7.22854e-05
-1.09563e-05 7.48097e-05 -8.50699e-05
-0.000734117 5.25768e-05 4.3875e-05
-0.000748932 4.7933e-05 4.88509e-05
-0.000742608 5.89022e-05 3.95906e-05
-2.45599e-05 0.000109266 -0.000116569
-1.44837e-05 8.91121e-05 -9.79984e-05
-1.91176e-05 0.000101732 -0.000110374
-0.000743637 -5.69309e-05 7.49914e-05
-0.000734467 -0.00011462 -2.45254e-05
-0.000745121 -9.09952e-05 2.67063e-05
-8.30044e-06 -5.94978e-05 6.42151e-05
-0.000720586 -0.000112831 -4.01048e-05
-3.72209e-06 -2.72086e-05 3.20739e-05