# vtk DataFile Version 3.0
vtk output
ASCII
DATASET POLYDATA
POINTS 10908 float
0.00184852 0.166016 -0.0233985
0.00148239 0.146633 -0.0188977
0.0115689 0.156783 -0.0196176
0.00114788 0.127187 -0.0142592
0.0112183 0.137329 -0.0151587
0.0216847 0.166924 -0.0199912
0.0415124 0.167848 -0.0165568
0.0613536 0.168735 -0.0133199
0.0213327 0.147453 -0.0156936
0.0411748 0.1483 -0.0124406
0.0610372 0.14909 -0.00940495
0.0314052 0.157658 -0.0162824
0.0512427 0.158534 -0.0129972
0.0210217 0.12792 -0.0113401
0.0408925 0.128662 -0.00840054
0.0607829 0.129345 -0.00566317
0.0310745 0.138118 -0.0120536
0.0509377 0.138892 -0.00902977
0.000849962 0.107686 -0.00949135
0.020754 0.108324 -0.00695287
0.0406578 0.108951 -0.00440839
0.0605784 0.109521 -0.00204309
0.0109068 0.117805 -0.0106081
0.0307917 0.1185 -0.00783987
0.0506866 0.119161 -0.00516787
0.000596179 0.088142 -0.00461551
0.0205319 0.088662 -0.00253227
0.040469 0.0891691 -0.000443846
0.010639 0.0982259 -0.00596278
0.030558 0.0988031 -0.00363023
0.0504863 0.0993483 -0.0013783
0.0104169 0.0785978 -0.0012511
0.0705959 0.119813 -0.00277684
0.0805067 0.110031 -1.64379e-05
0.0905373 0.120312 -0.000754718
0.110516 0.12075 0.000846426
0.0711027 0.159492 -0.0101138
0.0708196 0.139678 -0.00637546
0.0806844 0.130036 -0.003314
0.100634 0.130547 -0.00142213
0.12062 0.130985 6.1247e-05
0.140628 0.131312 0.00114933
0.0907354 0.140335 -0.00405148
0.110701 0.140874 -0.00223908
0.130698 0.141286 -0.000874263
0.0809153 0.149974 -0.00682845
0.100848 0.1506 -0.00473212
0.120824 0.151128 -0.0030818
0.140827 0.151529 -0.0018695
0.0909973 0.160288 -0.00763326
0.110948 0.160927 -0.0056577
0.130934 0.161425 -0.00416554
0.0812143 0.169842 -0.010579
0.101136 0.170562 -0.00837697
0.121098 0.171183 -0.00661499
0.141088 0.17166 -0.00531407
0.150714 0.141563 -4.41589e-05
0.170733 0.141748 0.000517805
0.190753 0.141878 0.000863219
0.15094 0.161756 -0.00328878
0.160833 0.151769 -0.0011464
0.180854 0.151938 -0.000750223
0.200866 0.152063 -0.000486334
0.170949 0.162016 -0.00261847
0.161073 0.172015 -0.00443237
0.181087 0.1722 -0.00407931
0.20109 0.17234 -0.00384466
0.190966 0.162158 -0.00241362
0.00225298 0.185376 -0.027768
0.0119651 0.176205 -0.0240149
0.022094 0.186379 -0.0243004
0.0419238 0.187395 -0.0208311
0.0617549 0.188402 -0.0175263
0.0317981 0.177177 -0.0205758
0.0516211 0.178172 -0.0171552
0.0123965 0.195569 -0.0283046
0.0322465 0.196617 -0.0249202
0.0520714 0.197709 -0.0215077
0.0026854 0.204694 -0.032016
0.0225483 0.205769 -0.0286123
0.0423999 0.206852 -0.0252849
0.0622385 0.207955 -0.022077
0.0128632 0.214889 -0.0325953
0.00313149 0.223995 -0.0360977
0.0327384 0.216008 -0.0293574
0.0230392 0.225116 -0.0329581
0.0429351 0.226244 -0.0299582
0.0627986 0.227417 -0.02701
0.0525967 0.217145 -0.0262448
0.00357983 0.243288 -0.0400263
0.0133446 0.234178 -0.0368518
0.0235543 0.244426 -0.037353
0.0332674 0.23533 -0.0339833
0.043496 0.245581 -0.0347774
0.0634077 0.246773 -0.0323238
0.0531717 0.236497 -0.0312243
0.00402868 0.262613 -0.0437441
0.0138294 0.253464 -0.0409502
0.0240793 0.263741 -0.041728
0.0338149 0.25462 -0.0386427
0.0440766 0.264884 -0.0397859
0.0640379 0.26605 -0.0379693
0.0537754 0.255772 -0.0364603
0.00446138 0.281997 -0.0472608
0.0143027 0.272776 -0.0449685
0.0245848 0.283079 -0.0460664
0.0343587 0.273887 -0.043396
0.0446348 0.28416 -0.0449611
0.0646376 0.285226 -0.043958
0.054369 0.274971 -0.0419619
0.0147499 0.292149 -0.0488611
0.0348656 0.293197 -0.0481975
0.0549033 0.29419 -0.0476203
0.00486615 0.301447 -0.0506482
0.0250383 0.302463 -0.0504801
0.015142 0.311622 -0.0526136
0.0352797 0.312574 -0.053004
0.0451216 0.303452 -0.0503248
0.0651439 0.304349 -0.050339
0.0553209 0.313451 -0.0534629
0.0714625 0.179179 -0.0140828
0.0913485 0.180154 -0.0115202
0.111287 0.180883 -0.00949122
0.0816121 0.189592 -0.0146834
0.101525 0.190419 -0.012458
0.121473 0.191146 -0.0106542
0.131269 0.181482 -0.00804703
0.0719077 0.198752 -0.0183704
0.0821037 0.209249 -0.0192416
0.0918031 0.199898 -0.0159373
0.102013 0.210162 -0.0171055
0.121939 0.210978 -0.0153534
0.111732 0.200711 -0.0139719
0.131684 0.201412 -0.0124462
0.072447 0.218294 -0.0232672
0.0730491 0.237729 -0.028533
0.0826777 0.228771 -0.0243152
0.0923405 0.219506 -0.020861
0.102581 0.229759 -0.0223873
0.122489 0.230631 -0.0208245
0.112257 0.220384 -0.0190558
0.13218 0.221166 -0.01762
0.0929419 0.238963 -0.0263559
0.112858 0.23988 -0.0248011
0.132748 0.240728 -0.0235043
0.141436 0.191717 -0.0094021
0.15124 0.181881 -0.00711517
0.161397 0.192196 -0.00845097
0.181386 0.192458 -0.00808318
0.20137 0.192642 -0.00790553
0.17123 0.18226 -0.00639066
0.19123 0.182465 -0.00613876
0.141876 0.211609 -0.0141193
0.151634 0.201901 -0.0115483
0.161797 0.212187 -0.0132438
0.181753 0.212519 -0.0128771
0.201705 0.21273 -0.0127726
0.171579 0.202362 -0.0107693
0.191555 0.202594 -0.0105935
0.142392 0.231352 -0.0197292
0.152098 0.221735 -0.0167834
0.162266 0.231988 -0.0189003
0.182178 0.232382 -0.0185699
0.202088 0.232621 -0.0185423
0.171996 0.222287 -0.0160019
0.191935 0.222544 -0.0159126
0.152622 0.241372 -0.0227799
0.172472 0.241981 -0.0220922
0.192362 0.242261 -0.0220719
0.0736856 0.257032 -0.0342887
0.0833006 0.248123 -0.0299892
0.103214 0.249163 -0.0284138
0.123104 0.25006 -0.0271325
0.0935865 0.258255 -0.0324838
0.113499 0.259159 -0.0313195
0.133358 0.260057 -0.0302622
0.074319 0.276223 -0.0404771
0.0839411 0.267358 -0.0361523
0.103867 0.268422 -0.0350589
0.0942156 0.277457 -0.039116
0.123734 0.269266 -0.0342539
0.114119 0.278328 -0.0384291
0.133955 0.279193 -0.0377628
0.0748998 0.295324 -0.0470763
0.0753471 0.314455 -0.0539464
0.0845849 0.28645 -0.0430565
0.0947894 0.29654 -0.0462702
0.104471 0.28754 -0.0422772
0.124327 0.288312 -0.0419573
0.114676 0.297344 -0.0461716
0.134485 0.298132 -0.0459483
0.0851133 0.305528 -0.0502453
0.0952464 0.315538 -0.0540425
0.104982 0.306556 -0.0499924
0.12482 0.307225 -0.0501933
0.115093 0.316295 -0.0543715
0.134883 0.316949 -0.0546545
0.142966 0.250855 -0.0261536
0.162789 0.251517 -0.0255001
0.153178 0.260753 -0.029618
0.182653 0.251943 -0.0253558
0.20251 0.252213 -0.0254701
0.172977 0.261379 -0.0291199
0.192809 0.26169 -0.0291829
0.143552 0.270086 -0.0335098
0.153726 0.279913 -0.0373351
0.163334 0.270782 -0.0329856
0.18313 0.27125 -0.0328448
0.202936 0.271533 -0.033044
0.173477 0.280542 -0.0369543
0.193253 0.280856 -0.0371071
0.144108 0.28914 -0.0415543
0.144567 0.30801 -0.050192
0.154215 0.298827 -0.0457798
0.163845 0.289844 -0.0411444
0.183589 0.29029 -0.041164
0.203339 0.290563 -0.041471
0.173929 0.29945 -0.0455766
0.193653 0.299737 -0.0458338
0.154579 0.317592 -0.0547873
0.164269 0.308626 -0.0500903
0.18399 0.309044 -0.0502156
0.203674 0.309283 -0.0506203
0.174289 0.318106 -0.0548996
0.193958 0.318337 -0.0552613
0.210758 0.14204 0.00107535
0.21096 0.162367 -0.00226734
0.230736 0.142105 0.00125447
0.250719 0.142199 0.00129737
0.220846 0.152215 -0.000361476
0.240811 0.152303 -0.000205514
0.260786 0.152404 -0.000166432
0.280751 0.152509 -5.25531e-05
0.221037 0.172525 -0.00382541
0.240987 0.172658 -0.00364264
0.260952 0.172768 -0.00364622
0.280907 0.172884 -0.00356015
0.230907 0.162455 -0.00204065
0.250884 0.162562 -0.00204603
0.270849 0.162672 -0.00198168
0.300688 0.152603 5.29628e-05
0.320641 0.152655 3.52201e-05
0.340582 0.152691 7.25908e-05
0.290792 0.162799 -0.00182585
0.300832 0.172989 -0.00348441
0.320775 0.173041 -0.00352916
0.340705 0.173077 -0.00350911
0.310735 0.162854 -0.00186228
0.330676 0.162898 -0.00185492
0.350607 0.162924 -0.00180068
0.36054 0.152764 0.000124121
0.380462 0.152853 0.000133116
0.400381 0.15294 0.000171072
0.420299 0.153015 0.000278285
0.360636 0.173209 -0.00348402
0.38054 0.173322 -0.00344972
0.400448 0.173417 -0.00342069
0.420353 0.1735 -0.00330969
0.370543 0.163073 -0.00176236
0.390457 0.163169 -0.00176013
0.410369 0.163252 -0.00169556
0.440221 0.153033 0.000292927
0.460137 0.153017 0.000203557
0.480051 0.15299 0.0001882
0.499962 0.152952 0.000248061
0.430289 0.163325 -0.00157626
0.440264 0.173532 -0.00330813
0.460168 0.173509 -0.00341387
0.480069 0.173477 -0.00343199
0.499968 0.173436 -0.00336051
0.450198 0.16331 -0.00168374
0.470106 0.163283 -0.00173175
0.490012 0.163244 -0.00171265
0.211218 0.182648 -0.00589083
0.211512 0.202802 -0.0104274
0.211848 0.222776 -0.0158412
0.212223 0.242518 -0.0220846
0.221285 0.192793 -0.00786329
0.2412 0.192955 -0.00770901
0.261146 0.193073 -0.00779604
0.281083 0.193205 -0.00777295
0.231118 0.182778 -0.00572905
0.251075 0.182893 -0.00581635
0.271023 0.183016 -0.00581658
0.221574 0.212944 -0.0126851
0.231374 0.202983 -0.0102583
0.241454 0.213108 -0.0126298
0.26138 0.213234 -0.0127862
0.281297 0.213389 -0.012818
0.251303 0.203103 -0.0103866
0.271233 0.203244 -0.0104534
0.22191 0.232847 -0.0185095
0.231673 0.222975 -0.0157365
0.241749 0.233015 -0.0185667
0.261647 0.233135 -0.0187994
0.281535 0.233303 -0.0189005
0.251569 0.22309 -0.0159237
0.271474 0.223237 -0.0160657
0.232009 0.242736 -0.0220702
0.251864 0.242826 -0.0223229
0.271738 0.242966 -0.0225333
0.29096 0.183162 -0.00571392
0.300996 0.193326 -0.00775463
0.320922 0.193398 -0.00786305
0.340837 0.193458 -0.00788452
0.310882 0.183232 -0.00580876
0.330808 0.183298 -0.00584721
0.350722 0.183348 -0.00582051
0.291144 0.203403 -0.0103853
0.301179 0.213526 -0.0128414
0.321092 0.213606 -0.0130323
0.340991 0.213687 -0.0131053
0.31105 0.20349 -0.0105474
0.330961 0.203577 -0.0106434
0.35086 0.203656 -0.0106477
0.291353 0.223403 -0.0160287
0.301394 0.23344 -0.0189589
0.321276 0.233506 -0.0192164
0.341156 0.233592 -0.0193408
0.311236 0.223492 -0.0162506
0.331129 0.22358 -0.0164026
0.35101 0.223674 -0.0164518
0.291582 0.243142 -0.0225426
0.311437 0.243211 -0.022841
0.331308 0.243285 -0.0230485
0.35117 0.243389 -0.0231432
0.212624 0.261967 -0.0292969
0.213017 0.281145 -0.0373179
0.213367 0.300014 -0.0461578
0.222291 0.252441 -0.0254477
0.232379 0.262179 -0.0293591
0.242084 0.252586 -0.0255979
0.261951 0.252684 -0.0259181
0.281808 0.252859 -0.026135
0.252179 0.262229 -0.0296797
0.272017 0.262354 -0.0299775
[...]
POINT_DATA 10908
VECTORS alpha float
-4.53795e-05 -0.00237346 0.000567633
-4.32681e-05 -0.00259823 0.0006352
-0.000221059 -8.78878e-06 -3.46585e-05
-3.88594e-05 -0.0027863 0.000692401
-0.00018264 -6.3925e-06 -2.57694e-05
-2.66663e-05 -0.0014124 0.000327869
-1.24912e-05 -0.000692871 0.000155113
-6.431e-06 -0.000374161 8.08388e-05
-2.38939e-05 -0.00153415 0.000354146
-1.05098e-05 -0.00074098 0.000160484
-5.04803e-06 -0.000391751 7.96034e-05
-0.000338333 -1.34627e-05 -5.27127e-05
-0.000383605 -1.42126e-05 -5.56399e-05
-2.01987e-05 -0.00163389 0.000375265
-8.27348e-06 -0.000778357 0.000163854
-3.68618e-06 -0.000403609 7.78039e-05
-0.00027745 -9.61465e-06 -3.90283e-05
-0.000311954 -9.91837e-06 -4.07443e-05
-3.24995e-05 -0.00293241 0.000738214
-1.5884e-05 -0.00170873 0.000391132
-6.04446e-06 -0.000803773 0.000165746
-2.48126e-06 -0.00040923 7.58425e-05
-0.000140992 -4.1586e-06 -1.70324e-05
-0.000211627 -6.13303e-06 -2.56124e-05
-0.000234697 -6.15386e-06 -2.63182e-05
-2.4661e-05 -0.0030337 0.0007688
-1.13412e-05 -0.00175741 0.000401182
-3.96743e-06 -0.000816777 0.000166113
-9.68636e-05 -2.29321e-06 -9.47728e-06
-0.000142078 -3.27589e-06 -1.39258e-05
-0.000153275 -3.17299e-06 -1.39272e-05
-5.09402e-05 -8.96362e-07 -3.71573e-06
-0.00023909 -5.6464e-06 -2.31901e-05
-1.04232e-06 -0.000210945 3.43788e-05
-0.000237143 -4.889e-06 -1.86615e-05
-0.000235522 -3.70106e-06 -1.41864e-05
-0.000399599 -1.39114e-05 -5.00088e-05
-0.000322279 -9.54624e-06 -3.60826e-05
-1.69226e-06 -0.000212505 3.69941e-05
-8.8948e-07 -0.000122936 1.95457e-05
-6.476e-07 -9.39012e-05 1.39245e-05
-6.58659e-07 -9.59734e-05 1.34741e-05
-0.000323489 -8.37416e-06 -2.95431e-05
-0.000323753 -6.49733e-06 -2.27285e-05
-0.000327056 -4.82729e-06 -1.67448e-05
-2.50606e-06 -0.000210825 3.99673e-05
-1.3526e-06 -0.000122634 2.17207e-05
-9.40694e-07 -9.05108e-05 1.52393e-05
-8.81321e-07 -8.82131e-05 1.42577e-05
-0.000403932 -1.25931e-05 -4.09898e-05
-0.000406028 -9.97536e-06 -3.17541e-05
-0.00041067 -7.55685e-06 -2.34938e-05
-3.40311e-06 -0.00020629 4.2687e-05
-1.88164e-06 -0.000120573 2.40244e-05
-1.25932e-06 -8.58264e-05 1.6576e-05
-1.09623e-06 -7.91634e-05 1.48824e-05
-0.000334502 -3.31209e-06 -1.07366e-05
-0.000345419 -2.00631e-06 -5.99679e-06
-0.000358114 -1.47798e-06 -4.15188e-06
-0.000419385 -5.27716e-06 -1.47312e-05
-9.69482e-07 -9.7416e-05 1.56138e-05
-1.02323e-06 -0.00010613 1.67186e-05
-1.01504e-06 -0.000109234 1.69822e-05
-0.000431742 -3.08674e-06 -7.55517e-06
-1.12623e-06 -8.45302e-05 1.5867e-05
-1.13986e-06 -9.1044e-05 1.69245e-05
-1.09728e-06 -9.37442e-05 1.72811e-05
-0.000445932 -2.45702e-06 -4.45277e-06
-4.49215e-05 -0.00211834 0.000493343
-0.000255962 -1.14917e-05 -4.25223e-05
-2.81045e-05 -0.00127284 0.00029767
-1.40088e-05 -0.000636074 0.000148087
-7.68974e-06 -0.000351896 8.15829e-05
-0.000393816 -1.79932e-05 -6.48127e-05
-0.000449093 -1.95378e-05 -6.89754e-05
-0.000286977 -1.40657e-05 -4.83051e-05
-0.000443333 -2.24047e-05 -7.35317e-05
-0.000507731 -2.4904e-05 -7.88748e-05
-4.18969e-05 -0.0018357 0.000414953
-2.77459e-05 -0.00111656 0.000263056
-1.47959e-05 -0.000570787 0.000138748
-8.63009e-06 -0.000324814 8.12149e-05
-0.000313998 -1.64146e-05 -5.04334e-05
-3.62752e-05 -0.00153025 0.000332915
-0.00048652 -2.66006e-05 -7.73464e-05
-2.53401e-05 -0.00094629 0.000223603
-1.44192e-05 -0.000498163 0.000126248
-8.91715e-06 -0.000293406 7.89157e-05
-0.000559241 -2.99011e-05 -8.22955e-05
-2.8817e-05 -0.00120549 0.000250626
-0.000336762 -1.82897e-05 -4.82776e-05
-2.1281e-05 -0.000764654 0.000180965
-0.00052313 -2.98253e-05 -7.46284e-05
-1.29787e-05 -0.000419415 0.000111105
-8.44877e-06 -0.000258105 7.45272e-05
-0.00060292 -3.40385e-05 -7.94823e-05
-2.00712e-05 -0.000865391 0.000170182
-0.000354981 -1.94801e-05 -4.19106e-05
-1.56888e-05 -0.000573538 0.000135157
-0.000552709 -3.20892e-05 -6.52729e-05
-1.03394e-05 -0.000335453 9.22816e-05
-7.16079e-06 -0.000219601 6.75595e-05
-0.000638347 -3.68177e-05 -6.90504e-05
-1.12683e-05 -0.000513085 9.45551e-05
-0.000368382 -1.96971e-05 -3.04451e-05
-9.54794e-06 -0.000374648 8.72766e-05
-0.000574707 -3.28656e-05 -4.75379e-05
-7.03473e-06 -0.000247226 6.99251e-05
-5.29218e-06 -0.000178299 5.79984e-05
-0.000665084 -3.72785e-05 -5.04043e-05
-0.000376792 -1.90508e-05 -1.41097e-05
-0.000588944 -3.2041e-05 -2.27209e-05
-0.000682628 -3.6282e-05 -2.47856e-05
-3.01581e-06 -0.000151425 2.59736e-05
-3.71058e-06 -0.000169715 3.89047e-05
-0.000379355 -1.78347e-05 6.33647e-06
-0.000594223 -2.96121e-05 8.35438e-06
-3.6164e-06 -0.000155476 4.4695e-05
-3.09349e-06 -0.000134624 4.5859e-05
-0.000689975 -3.3491e-05 8.01551e-06
-0.00047058 -1.88103e-05 -6.26453e-05
-0.000477881 -1.76621e-05 -5.16155e-05
-0.000481863 -1.44393e-05 -3.98686e-05
-4.34192e-06 -0.00019866 4.52552e-05
-2.44779e-06 -0.000116835 2.62959e-05
-1.57578e-06 -7.99894e-05 1.77559e-05
-0.000487812 -1.14656e-05 -2.8977e-05
-0.000534306 -2.40162e-05 -7.25836e-05
-5.10283e-06 -0.0001883 4.74538e-05
-0.000544456 -2.31237e-05 -5.91451e-05
-2.93294e-06 -0.000111387 2.85384e-05
-1.80995e-06 -7.30022e-05 1.87635e-05
-0.000550149 -1.93237e-05 -4.51568e-05
-0.000557116 -1.56592e-05 -3.34008e-05
-0.000590281 -2.97753e-05 -7.59129e-05
-0.000637731 -3.47804e-05 -7.3973e-05
-5.51398e-06 -0.000175282 4.8863e-05
-0.000602911 -2.83378e-05 -6.31087e-05
-3.22257e-06 -0.000104355 3.03698e-05
-1.90113e-06 -6.49955e-05 1.92156e-05
-0.000610056 -2.39397e-05 -4.7632e-05
-0.0006179 -1.99323e-05 -3.51267e-05
-0.000652355 -3.31851e-05 -6.21094e-05
-0.000660639 -2.81729e-05 -4.70011e-05
-0.000669072 -2.41339e-05 -3.46826e-05
-1.2706e-06 -6.91433e-05 1.52504e-05
-0.000497552 -8.62248e-06 -1.81832e-05
-1.21746e-06 -7.05584e-05 1.55631e-05
-1.19301e-06 -7.48083e-05 1.64342e-05
-1.12167e-06 -7.70875e-05 1.68699e-05
-0.00051126 -4.82623e-06 -6.57857e-06
-0.00052663 -3.88385e-06 -3.89065e-06
-1.33962e-06 -5.80814e-05 1.49698e-05
-0.000567762 -1.20584e-05 -2.08765e-05
-1.18615e-06 -5.55607e-05 1.44911e-05
-1.1168e-06 -5.74868e-05 1.50127e-05
-1.0327e-06 -5.93012e-05 1.54843e-05
-0.000582616 -6.31188e-06 -5.24282e-06
-0.000598912 -5.16221e-06 -2.44202e-06
-1.25128e-06 -4.63364e-05 1.38666e-05
-0.000629206 -1.57517e-05 -2.18237e-05
-9.93273e-07 -3.99747e-05 1.21849e-05
-8.86478e-07 -3.95765e-05 1.21231e-05
-8.1112e-07 -4.08901e-05 1.25535e-05
-0.000644861 -7.81291e-06 -2.94169e-06
-0.000661844 -6.54078e-06 -2.24007e-07
-0.000680701 -1.94821e-05 -2.13909e-05
-0.000696734 -9.24269e-06 -7.23401e-07
-0.000714162 -7.98748e-06 1.81086e-06
-0.000676421 -3.84246e-05 -6.47121e-05
-5.438e-06 -0.000159833 4.91664e-05
-3.22347e-06 -9.5873e-05 3.14907e-05
-1.79297e-06 -5.61913e-05 1.89985e-05
-0.000692634 -3.69308e-05 -5.48474e-05
-0.000701608 -3.16369e-05 -4.13082e-05
-0.000710364 -2.79252e-05 -2.98339e-05
-0.000705795 -3.97005e-05 -4.7849e-05
-4.83786e-06 -0.000142324 4.78648e-05
-2.92494e-06 -8.61457e-05 3.14558e-05
-0.000723609 -3.8644e-05 -4.03123e-05
-1.50452e-06 -4.66823e-05 1.79357e-05
-0.000732768 -3.40496e-05 -3.073e-05
-0.00074179 -3.05152e-05 -2.12833e-05
-0.000725766 -3.83004e-05 -2.31868e-05
-0.000734975 -3.52276e-05 6.77901e-06
-3.84777e-06 -0.000123173 4.49371e-05
-0.000745142 -3.84205e-05 -2.04078e-05
-2.35071e-06 -7.52643e-05 3.02748e-05
-1.08481e-06 -3.68054e-05 1.56205e-05
-0.00075451 -3.47311e-05 -1.59826e-05
-0.000763742 -3.1451e-05 -9.86425e-06
-2.49004e-06 -0.000102432 3.96186e-05
-0.00075562 -3.63197e-05 4.61027e-06
-1.584e-06 -6.35628e-05 2.75713e-05
-6.13361e-07 -2.65553e-05 1.22368e-05
-0.000765902 -3.28149e-05 2.97754e-06
-0.000775433 -3.0056e-05 4.31541e-06
-9.93836e-07 -3.41622e-05 1.17681e-05
-6.49198e-07 -2.41817e-05 8.54304e-06
-0.000721956 -2.3131e-05 -1.84447e-05
-5.19005e-07 -2.15206e-05 7.73612e-06
-4.71704e-07 -2.23268e-05 8.06306e-06
-0.000737977 -1.17797e-05 1.48739e-06
-0.000755752 -9.37178e-06 5.64865e-06
-6.41421e-07 -2.17595e-05 8.56497e-06
-0.000753282 -2.56923e-05 -1.24627e-05
-2.29297e-07 -8.48229e-06 3.43554e-06
-9.14471e-08 -3.70599e-06 1.51673e-06
-8.51174e-08 -4.00107e-06 1.64657e-06
-0.000768978 -1.45645e-05 2.9878e-06
-0.000786676 -1.01581e-05 9.14441e-06
-2.50986e-07 -9.43939e-06 4.12105e-06
5.61061e-08 2.76577e-06 -1.3135e-06
-0.000775146 -2.66345e-05 -4.14368e-06
1.66801e-07 6.81275e-06 -3.06522e-06
3.09855e-07 1.35304e-05 -6.17426e-06
2.66248e-07 1.37223e-05 -6.29494e-06
-0.00079038 -1.66055e-05 5.468e-06
-0.000807651 -9.84081e-06 1.34693e-05
-0.000786884 -2.56448e-05 5.89139e-06
4.02013e-07 2.16221e-05 -1.06232e-05
5.31276e-07 3.00727e-05 -1.49682e-05
4.63832e-07 3.06496e-05 -1.53521e-05
-0.000801734 -1.66378e-05 9.49945e-06
-0.000818282 -9.75716e-06 1.53288e-05
-0.000371027 -1.8249e-06 -3.27317e-06
-0.000460381 -2.84476e-06 -3.17621e-06
-0.000382969 -1.38497e-06 2.80447e-07
-0.000393435 -1.50148e-06 -8.2785e-07
-8.62035e-07 -0.000105938 1.67918e-05
-7.71833e-07 -9.73186e-05 1.54342e-05
-6.44449e-07 -8.55973e-05 1.35913e-05
-5.1726e-07 -7.30942e-05 1.1622e-05
-9.0398e-07 -9.14041e-05 1.73675e-05
-8.02326e-07 -8.44389e-05 1.60683e-05
-6.59295e-07 -7.46418e-05 1.42537e-05
-5.20882e-07 -6.39027e-05 1.22352e-05
-0.000473843 -1.95616e-06 1.66454e-06
-0.000485665 -2.16375e-06 -7.58264e-08
-0.000495692 -2.31893e-06 -1.8844e-06
-4.14324e-07 -6.13215e-05 9.79333e-06
-3.19074e-07 -5.10137e-05 8.17756e-06
-2.43002e-07 -4.2352e-05 6.80649e-06
-0.000504321 -1.87771e-06 -4.00829e-07
-4.12677e-07 -5.35573e-05 1.03154e-05
-3.13351e-07 -4.43675e-05 8.59457e-06
-2.34737e-07 -3.65855e-05 7.10848e-06
-0.000511269 -9.52099e-07 9.30086e-07
-0.00051717 -5.70002e-07 -3.73836e-07
-0.00052228 -1.42751e-07 -1.64092e-06
-1.63082e-07 -3.52422e-05 5.68918e-06
-1.11271e-07 -2.91339e-05 4.70558e-06
-7.81525e-08 -2.37278e-05 3.83209e-06
-5.18631e-08 -1.87456e-05 3.02305e-06
-1.51699e-07 -3.02057e-05 5.88124e-06
-1.04975e-07 -2.47713e-05 4.82207e-06
-7.35004e-08 -2.00409e-05 3.91238e-06
-4.87801e-08 -1.57574e-05 3.0754e-06
-0.000526717 -2.46145e-06 1.11575e-06
-0.000530743 -2.17041e-06 -6.14606e-07
-0.000534152 -1.86457e-06 -2.35067e-06
-2.85267e-08 -1.39832e-05 2.2593e-06
-1.40685e-08 -9.3053e-06 1.50819e-06
-4.58006e-09 -4.65375e-06 7.55613e-07
-2.87785e-12 -6.29188e-09 1.02186e-09
-0.000536967 -7.20466e-07 -7.08093e-07
-2.66796e-08 -1.17178e-05 2.2896e-06
-1.32363e-08 -7.78269e-06 1.52598e-06
-4.37228e-09 -3.88659e-06 7.62384e-07
3.86769e-13 7.02252e-10 -1.37369e-10
-0.00053902 6.50537e-07 2.32875e-06
-0.000540379 9.55379e-07 4.71089e-07
-0.000541039 1.24698e-06 -1.43188e-06
-0.000542099 -3.49533e-06 -2.22156e-06
-0.000615381 -4.65358e-06 -3.46075e-07
-0.00067913 -5.98737e-06 2.30039e-06
-0.000732037 -7.50984e-06 4.84184e-06
-9.1806e-07 -7.56396e-05 1.70783e-05
-8.0471e-07 -7.04733e-05 1.60368e-05
-6.54173e-07 -6.27239e-05 1.43827e-05
-5.0957e-07 -5.38887e-05 1.24173e-05
-0.000556856 -2.38979e-06 4.46211e-06
-0.000569822 -2.81197e-06 1.95398e-06
-0.000580851 -3.17112e-06 -6.20845e-07
-8.67597e-07 -5.88746e-05 1.56059e-05
-0.00063133 -3.24237e-06 5.90373e-06
-7.6044e-07 -5.55505e-05 1.49834e-05
-6.11958e-07 -4.99636e-05 1.35902e-05
-4.68348e-07 -4.3165e-05 1.17881e-05
-0.000645226 -3.57053e-06 4.50327e-06
-0.000656988 -4.30484e-06 1.21903e-06
-7.07249e-07 -4.13924e-05 1.2929e-05
-0.00069612 -3.83817e-06 7.79533e-06
-6.27106e-07 -3.99226e-05 1.27062e-05
-5.04084e-07 -3.65317e-05 1.17269e-05
-3.80306e-07 -3.1825e-05 1.025e-05
-0.000710833 -3.90975e-06 7.66773e-06
-0.000723234 -5.29302e-06 3.89613e-06
-0.000749716 -4.13179e-06 9.37659e-06
-0.000765023 -3.56904e-06 1.08888e-05
-0.00077781 -5.88023e-06 6.69613e-06
-0.000590255 -3.2021e-06 1.29543e-07
-3.95195e-07 -4.51203e-05 1.04725e-05
-2.96666e-07 -3.71668e-05 8.69985e-06
-2.18781e-07 -3.0364e-05 7.13622e-06
-0.000597918 -1.75574e-06 2.68133e-06
-0.000604356 -1.36184e-06 6.44214e-07
-0.000609899 -9.22774e-07 -1.40428e-06
-0.000667104 -4.68743e-06 2.63637e-06
-3.5892e-07 -3.61008e-05 9.9527e-06
-2.64413e-07 -2.94958e-05 8.22007e-06
-1.89813e-07 -2.37688e-05 6.65629e-06
-0.000675417 -2.54607e-06 5.35221e-06
-0.000682232 -2.40226e-06 2.20644e-06
-0.000688056 -2.23325e-06 -1.04357e-06
-0.000734126 -6.01832e-06 4.49465e-06
-2.84843e-07 -2.6537e-05 8.63814e-06
-2.06912e-07 -2.13541e-05 7.03973e-06
-1.42341e-07 -1.67796e-05 5.56139e-06
-0.000743103 -2.57051e-06 8.13417e-06
-0.00075039 -2.95631e-06 4.27187e-06
-0.000756615 -3.32259e-06 2.84084e-07
-0.000789349 -6.99905e-06 6.55012e-06
-0.000798588 -1.83212e-06 1.11002e-05
-0.000806058 -3.11208e-06 6.57709e-06
-0.000812392 -4.38588e-06 1.90799e-06
-0.000774086 -8.80351e-06 6.04374e-06
-0.000805129 -9.43716e-06 1.0409e-05
-0.000825951 -8.98464e-06 1.55905e-05
-4.60865e-07 -2.3761e-05 8.72268e-06
-0.000792469 -4.09151e-06 1.26985e-05
-4.23234e-07 -2.41415e-05 9.02081e-06
-3.44326e-07 -2.29405e-05 8.66188e-06
-2.55301e-07 -2.03469e-05 7.71916e-06
-0.000808114 -2.64561e-06 1.47158e-05
-0.00082133 -6.24829e-06 1.08668e-05
-0.000836344 -7.44785e-06 2.00234e-05
-1.2261e-07 -6.32717e-06 2.64482e-06
-0.000823751 -2.37051e-06 1.64999e-05
-1.51049e-07 -8.50948e-06 3.6181e-06
-1.44301e-07 -9.44827e-06 4.06573e-06
-1.11398e-07 -8.94227e-06 3.86867e-06
-0.000839706 -1.02018e-06 1.86972e-05
-0.000853299 -5.56543e-06 1.59047e-05
1.88853e-07 1.05778e-05 -4.92089e-06
-0.00084465 -9.79065e-07 1.9302e-05
1.12101e-07 6.67352e-06 -3.15884e-06
5.3258e-08 3.66782e-06 -1.76101e-06
2.48131e-08 2.16328e-06 -1.04416e-06
-0.000860551 1.53471e-06 2.21803e-05
-0.000874325 -3.85019e-06 2.05535e-05
3.91408e-07 2.67251e-05 -1.3561e-05
-0.000854655 1.21547e-06 2.11971e-05
3.05358e-07 2.11629e-05 -1.09489e-05
1.98341e-07 1.61444e-05 -8.48596e-06
1.15452e-07 1.27043e-05 -6.70944e-06
-0.00087042 4.97408e-06 2.50182e-05
-0.00088437 -1.19136e-06 2.45418e-05
-0.000833483 -7.43785e-06 8.16713e-06
-1.89336e-07 -1.69049e-05 6.46371e-06
-1.32935e-07 -1.32169e-05 5.12862e-06
-8.4038e-08 -9.85654e-06 3.84563e-06
-0.000842932 -2.08457e-07 1.44138e-05
-0.000850689 -2.79833e-06 9.99313e-06
-0.000857252 -5.39256e-06 5.44799e-06
-0.000866014 -6.13591e-06 1.39734e-05
-8.15675e-08 -7.33051e-06 3.19432e-06
-5.19007e-08 -5.17023e-06 2.29029e-06
-2.52637e-08 -3.04847e-06 1.35828e-06
-0.000875355 2.19726e-06 1.72765e-05
-0.000883382 -1.5889e-06 1.36198e-05
-0.000890188 -5.38716e-06 9.86962e-06
-0.000887201 -3.81845e-06 1.895e-05
2.08681e-08 1.99909e-06 -9.7217e-07
2.49664e-08 2.6455e-06 -1.30904e-06
2.66018e-08 3.54433e-06 -1.76376e-06
-0.000896153 5.42662e-06 1.9996e-05
-0.000904265 2.74605e-07 1.69638e-05
-0.000911162 -4.92484e-06 1.38287e-05
-0.000897306 -8.63129e-07 2.28959e-05
9.38335e-08 1.0833e-05 -5.76684e-06
8.03551e-08 1.00075e-05 -5.42561e-06
5.77914e-08 9.73462e-06 -5.30682e-06
-0.000905972 9.04249e-06 2.17204e-05
-0.00091423 2.63259e-06 1.94953e-05
-0.000921273 -3.8723e-06 1.71341e-05
-1.38049e-07 -2.47726e-05 5.80195e-06
-9.54485e-08 -2.00881e-05 4.7143e-06
-6.666e-08 -1.60941e-05 3.79572e-06
-4.43483e-08 -1.25661e-05 2.96394e-06
-0.000614882 -2.58937e-06 2.45128e-06
-0.000619211 -2.52757e-06 -2.42505e-07
-0.000622865 -2.4534e-06 -2.94089e-06
-1.14121e-07 -1.90234e-05 5.35705e-06
-7.94679e-08 -1.51566e-05 4.29546e-06
-5.40941e-08 -1.19594e-05 3.41042e-06
-3.50886e-08 -9.23475e-06 2.63463e-06
-0.000693471 -2.73575e-06 3.78788e-06
-0.000697997 -2.9745e-06 4.3405e-07
-0.000701802 -3.19591e-06 -2.91247e-06
-0.000762577 -2.54685e-06 5.55621e-06
-0.000767351 -3.35145e-06 1.68448e-06
-0.00077135 -4.13457e-06 -2.1595e-06
-8.5176e-08 -1.29794e-05 4.38628e-06
-5.81957e-08 -9.99234e-06 3.39935e-06
-3.73577e-08 -7.6431e-06 2.61619e-06
-2.2752e-08 -5.76438e-06 1.9732e-06
-0.000818585 -1.73858e-06 7.29675e-06
-0.000823303 -3.42748e-06 3.02197e-06
-0.000827226 -5.09157e-06 -1.20255e-06
-0.000625801 -1.67139e-06 1.9881e-07
-2.36312e-08 -9.30556e-06 2.19699e-06
-1.19275e-08 -6.16591e-06 1.46203e-06
-4.08963e-09 -3.07807e-06 7.2956e-07
-2.84947e-12 -3.93217e-09 9.27148e-10
-0.000627992 3.23036e-07 3.45434e-06
-0.000629413 3.87411e-07 5.61178e-07
-0.000630081 4.33624e-07 -2.38916e-06
-0.000704803 -2.03732e-06 9.98327e-07
-1.91016e-08 -6.78863e-06 1.93984e-06
-9.46271e-09 -4.48026e-06 1.28617e-06
-3.14704e-09 -2.23404e-06 6.40694e-07
-4.21208e-12 -5.95414e-09 1.69607e-09
-0.000707077 4.22727e-07 4.42186e-06
-0.000708546 1.32288e-07 7.75609e-07
-0.000709233 -1.92307e-07 -2.96129e-06
-0.000774477 -3.1488e-06 1.07472e-06
-0.000776868 7.69122e-07 5.05674e-06
-0.000778411 -1.25431e-07 9.61817e-07
-0.000779129 -1.07648e-06 -3.25478e-06
-0.000830284 -4.34617e-06 1.22376e-06
-1.30768e-08 -4.17238e-06 1.43235e-06
-6.16105e-09 -2.73065e-06 9.41733e-07
-1.86719e-09 -1.35866e-06 4.67953e-07
-4.22732e-12 -8.57458e-09 2.93167e-09
-0.000832601 1.44025e-06 5.56213e-06
-0.000834116 -3.32159e-07 1.20997e-06
-0.000834822 -2.18772e-06 -3.29271e-06
-4.73665e-08 -7.08786e-06 2.77593e-06
-3.05973e-08 -4.99378e-06 1.96873e-06
-1.75939e-08 -3.48907e-06 1.38524e-06
-9.62813e-09 -2.43551e-06 9.67226e-07
-0.000863767 -5.08098e-07 8.30747e-06
-0.000868507 -3.45101e-06 4.48387e-06
-0.000872423 -6.36264e-06 7.39959e-07
-8.43425e-09 -1.31564e-06 5.87645e-07
-7.82916e-10 -1.24438e-07 5.6012e-08
2.74565e-09 5.37138e-07 -2.43704e-07
3.06117e-09 7.79586e-07 -3.53916e-07
-0.000897061 2.93009e-07 8.54939e-06
-0.000901632 -3.20811e-06 5.49834e-06
-0.000905558 -7.24988e-06 2.76383e-06
2.468e-08 4.2619e-06 -2.12438e-06
2.84446e-08 4.56404e-06 -2.29642e-06
2.18927e-08 4.40312e-06 -2.23415e-06
1.4333e-08 3.86333e-06 -1.96116e-06
-0.000918228 1.29885e-06 8.82793e-06
-0.000922405 -2.34856e-06 7.03612e-06
-0.000926249 -7.68124e-06 5.23721e-06
4.35066e-08 9.49582e-06 -5.17786e-06
5.21322e-08 8.95831e-06 -4.9382e-06
3.60327e-08 8.03115e-06 -4.46678e-06
2.13858e-08 6.76653e-06 -3.7647e-06
-0.000928532 2.0911e-06 8.39859e-06
-0.000932258 -1.50002e-06 8.31409e-06
-0.000935976 -8.05921e-06 7.43885e-06
-0.000875463 -5.48181e-06 -9.35954e-08
-5.54523e-09 -1.6685e-06 6.64517e-07
-2.44094e-09 -1.05728e-06 4.23063e-07
-6.67332e-10 -5.18127e-07 2.06954e-07
-7.23593e-13 -2.7122e-09 1.07428e-09
-0.000877718 2.26145e-06 5.62021e-06
-0.000879231 -8.37535e-07 1.8883e-06
-0.000879932 -4.05084e-06 -2.02199e-06
-0.000908574 -5.65756e-06 2.55969e-06
2.54562e-09 7.43069e-07 -3.37388e-07
1.26939e-09 5.489e-07 -2.50421e-07
3.39677e-10 2.8486e-07 -1.29667e-07
-2.30304e-13 -3.26458e-09 1.47206e-09
-0.000910758 3.55287e-06 5.7027e-06
-0.000912298 -9.0516e-07 2.66369e-06
-0.000913023 -5.50167e-06 -5.62654e-07
-0.000929185 -5.71842e-06 5.03822e-06
1.06159e-08 3.05793e-06 -1.55211e-06
4.74414e-09 2.08944e-06 -1.0662e-06
1.12248e-09 1.05584e-06 -5.37526e-07
3.09893e-13 -2.10397e-09 1.06038e-09
-0.000931238 5.17119e-06 5.67576e-06
-0.000932788 -7.41017e-07 3.27369e-06
-0.00093353 -6.80189e-06 7.04744e-07
-0.000938749 -5.8968e-06 6.47898e-06
1.75645e-08 5.24526e-06 -2.9163e-06
7.3797e-09 3.54652e-06 -1.98339e-06
1.44545e-09 1.78473e-06 -9.95672e-07
2.00056e-12 -4.30464e-09 2.3755e-09
-0.000940612 6.87292e-06 5.18606e-06
-0.000942132 -3.46139e-07 3.66985e-06
-0.000942879 -7.71943e-06 2.01343e-06
-0.000157108 1.62084e-06 8.86786e-06
-0.000272272 4.63708e-06 1.91459e-05
-0.000267496 4.01339e-06 1.33515e-05
-1.04287e-05 0.000194364 -1.34348e-05
-8.56184e-06 0.000200468 -1.47378e-05
-0.000162656 1.9645e-06 1.31904e-05
-6.17178e-06 0.000196218 6.97324e-06
-4.76594e-06 0.000203087 6.30966e-06
-4.67188e-05 1.19516e-07 4.14093e-06
-4.056e-05 1.13365e-07 2.47036e-06
-2.43073e-07 0.000199539 2.77583e-05
-0.000370946 5.54853e-06 1.74173e-05
-0.000374403 6.56827e-06 2.30121e-05
-0.000270339 5.62317e-06 3.42273e-05
-1.29908e-05 0.000187098 -2.9773e-05
-1.08215e-05 0.00019286 -3.13584e-05
-1.10177e-05 0.000170041 -9.38877e-06
-0.000164278 1.73535e-06 2.29345e-05
-6.71789e-06 0.000172505 7.82361e-06
-5.18532e-05 -1.63888e-07 7.61189e-06
-1.22059e-06 0.000191685 2.69581e-05
3.88845e-06 0.000215883 -3.35815e-05
6.75054e-07 3.92863e-05 -8.69972e-06
-0.000376059 -1.6193e-05 3.00559e-05
-0.000590301 -2.62272e-05 4.48018e-05
-9.74784e-07 -6.11529e-05 1.76817e-05
-1.20587e-06 -8.91292e-05 3.12698e-05
-0.00068691 -2.93079e-05 4.70601e-05
9.67911e-06 0.000585388 -8.04529e-05
2.8554e-06 0.000250633 -5.25929e-05
-0.000366335 -1.42286e-05 5.55671e-05