# vtk DataFile Version 3.0
vtk output
ASCII
DATASET POLYDATA
POINTS 5050 float
0.121455 0.284715 -0.0766157
0.141392 0.284849 -0.0783655
0.161412 0.284906 -0.0794415
0.181448 0.284861 -0.0801603
0.191501 0.2749 -0.0770591
0.211462 0.274719 -0.0774725
0.231419 0.274438 -0.0778408
0.201362 0.284665 -0.0808515
0.221365 0.284422 -0.0812397
0.171573 0.275012 -0.0763953
0.00086906 0.0875926 -0.035198
0.0208785 0.0878737 -0.0339973
0.00062613 0.0682172 -0.0318528
0.0206309 0.0684425 -0.0308052
0.0107418 0.078062 -0.0331549
0.030745 0.0783238 -0.0320092
0.000403974 0.0487897 -0.028185
0.0204062 0.0489605 -0.0273783
0.0105003 0.0586387 -0.0297253
0.0305011 0.0588449 -0.0287865
0.000208145 0.0293132 -0.0242154
0.02021 0.0294222 -0.0237112
0.0102817 0.0391594 -0.0260206
0.0302825 0.0393038 -0.0253605
0.0408793 0.0881868 -0.0328358
0.0406286 0.0686808 -0.0297972
0.0404031 0.0491257 -0.0266135
0.0507367 0.0786113 -0.0309652
0.0608624 0.0884994 -0.0317367
0.0808405 0.0887772 -0.0307611
0.100816 0.0890267 -0.0298863
0.0606145 0.0689291 -0.0288774
0.0805986 0.0691459 -0.0279895
0.10058 0.0693367 -0.0272291
0.0707185 0.0788803 -0.0299857
0.0906996 0.0791152 -0.0290941
0.0603965 0.0492988 -0.0258961
0.0803866 0.0494571 -0.0252138
0.100375 0.0495942 -0.0246312
0.0504938 0.0590562 -0.027954
0.0704835 0.0592562 -0.0271231
0.0904713 0.0594347 -0.026394
0.0402079 0.0295083 -0.0232553
0.0602055 0.0296171 -0.0227871
0.0802022 0.0297149 -0.0223632
0.100198 0.0297989 -0.0219999
0.0502781 0.0394346 -0.0247749
0.0702745 0.0395714 -0.0241923
0.0902701 0.0396922 -0.0236809
0.00111636 0.106932 -0.0383219
0.0211357 0.107276 -0.037102
0.0109982 0.0974395 -0.0364067
0.0310057 0.0977677 -0.0351761
0.00137132 0.126254 -0.0411183
0.0214055 0.126654 -0.0399894
0.011258 0.116782 -0.0393925
0.0312751 0.117165 -0.0381823
0.011528 0.136116 -0.0421293
0.0315605 0.136552 -0.041078
0.00163337 0.145583 -0.0436516
0.0216861 0.146019 -0.0427645
0.0118058 0.155458 -0.0446472
0.0318543 0.155917 -0.0439238
0.0411414 0.10763 -0.0358938
0.0509986 0.0981033 -0.0340184
0.061128 0.108019 -0.0347529
0.0811002 0.10836 -0.0337969
0.101069 0.108674 -0.0329179
0.0709758 0.0984395 -0.0329829
0.0909501 0.0987427 -0.0320307
0.0414211 0.12708 -0.0388747
0.0417143 0.146495 -0.041902
0.0512764 0.117558 -0.0370256
0.0614166 0.127523 -0.0377954
0.0813832 0.127898 -0.0369275
0.101344 0.128273 -0.036098
0.0712505 0.117947 -0.0360279
0.0912195 0.118311 -0.0350804
0.0515715 0.137018 -0.0400652
0.0518755 0.156427 -0.0432281
0.0715479 0.137426 -0.0392003
0.0915133 0.137845 -0.0383531
0.0617184 0.146987 -0.0410078
0.0816835 0.147393 -0.0402745
0.101637 0.14782 -0.0395789
0.071857 0.156876 -0.0425436
0.0918185 0.157339 -0.0419011
0.110675 0.0793214 -0.0283852
0.110458 0.0595789 -0.0258201
0.12078 0.089248 -0.0292213
0.12056 0.0694907 -0.0266671
0.140749 0.0893989 -0.0287742
0.16071 0.0895395 -0.0283758
0.140539 0.0696176 -0.0262822
0.16051 0.0697133 -0.025939
0.130652 0.079486 -0.0278598
0.150621 0.0796185 -0.0274506
0.120372 0.0496931 -0.0242533
0.140355 0.0497832 -0.0239093
0.160337 0.0498506 -0.0236368
0.130446 0.0597009 -0.0253978
0.150426 0.0597992 -0.025051
0.120198 0.0298484 -0.0217623
0.140191 0.029904 -0.0215474
0.160183 0.0299459 -0.0213782
0.110268 0.0397776 -0.0232937
0.130261 0.0398624 -0.0229793
0.150252 0.0399284 -0.0227342
0.170585 0.0797576 -0.0270049
0.170407 0.0599028 -0.0246663
0.180662 0.0897209 -0.027839
0.180482 0.0698489 -0.0254749
0.200622 0.0898166 -0.0277468
0.220576 0.0898541 -0.0277774
0.200457 0.0699176 -0.0254131
0.220424 0.0699456 -0.0254017
0.190554 0.0798896 -0.0266955
0.210516 0.0799275 -0.0267218
0.230478 0.0799618 -0.0266864
0.180329 0.0499542 -0.0232745
0.200308 0.0499816 -0.0232682
0.220287 0.0500053 -0.0232239
0.190388 0.0599819 -0.0244963
0.210363 0.0600165 -0.0244655
0.230338 0.060046 -0.0243999
0.180181 0.0299923 -0.0211999
0.20017 0.0300147 -0.0211634
0.22016 0.0300339 -0.0211133
0.170248 0.0400002 -0.022443
0.190235 0.0400353 -0.0223872
0.210222 0.0400648 -0.0223275
0.230209 0.0400898 -0.0222576
0.110915 0.0989946 -0.0312631
0.111179 0.11863 -0.0343236
0.111465 0.138229 -0.0376871
0.111757 0.157782 -0.0414237
0.12102 0.108941 -0.0322195
0.140968 0.109131 -0.0317364
0.160914 0.109326 -0.0313426
0.130869 0.0991974 -0.0306742
0.150821 0.0993851 -0.0302364
0.121295 0.128604 -0.0354788
0.121575 0.148218 -0.0391059
0.141218 0.128821 -0.0349964
0.161147 0.129062 -0.0346247
0.131117 0.118865 -0.0337297
0.151053 0.119106 -0.0332821
0.131383 0.138484 -0.0372248
0.151304 0.138766 -0.0368026
0.141475 0.148439 -0.0387334
0.161384 0.148702 -0.038402
0.131657 0.158052 -0.0411156
0.151562 0.158348 -0.0407767
0.170784 0.0995547 -0.0297898
0.18086 0.109541 -0.0307851
0.200798 0.109669 -0.0306549
0.220733 0.109718 -0.0307412
0.190731 0.0997382 -0.0293566
0.210675 0.0997917 -0.0294339
0.230617 0.0998384 -0.0294493
0.170989 0.119326 -0.0328442
0.171216 0.139027 -0.0363928
0.17145 0.158618 -0.04044
0.181081 0.129316 -0.0341564
0.200993 0.129453 -0.0339752
0.220909 0.12952 -0.0340704
0.190929 0.119543 -0.0323687
0.210854 0.119607 -0.0324723
0.230777 0.119663 -0.0325113
0.181281 0.148973 -0.0379749
0.191138 0.139249 -0.0360127
0.211043 0.139335 -0.0361029
0.230944 0.139407 -0.0361467
0.201191 0.149138 -0.0378796
0.221083 0.14923 -0.0379472
0.191349 0.158864 -0.0401243
0.211235 0.158979 -0.0402082
0.231115 0.159073 -0.0402635
0.00188214 0.164914 -0.0459609
0.0219527 0.16537 -0.0455187
0.0120548 0.174813 -0.0470568
0.0321184 0.175296 -0.0468577
0.0021274 0.1843 -0.0478593
0.0222114 0.184786 -0.0479867
0.012294 0.194237 -0.0491201
0.00235685 0.203763 -0.0494312
0.02244 0.204273 -0.0502778
0.0323448 0.194724 -0.0496194
0.0124837 0.213723 -0.0509475
0.032536 0.214237 -0.0521878
0.00254506 0.2233 -0.0506971
0.0225892 0.223809 -0.0523899
0.0419926 0.165844 -0.0450339
0.0521481 0.1758 -0.0465576
0.0620012 0.166358 -0.0445165
0.0819722 0.166847 -0.0440052
0.10192 0.167325 -0.0435965
0.0721376 0.176312 -0.0462256
0.0920992 0.176814 -0.0459511
0.042259 0.185279 -0.0480815
0.0424824 0.204775 -0.0511037
0.0425903 0.2243 -0.0540832
0.0622742 0.185806 -0.0480407
0.0822466 0.186333 -0.047957
0.102192 0.186844 -0.0479114
0.052371 0.195213 -0.049988
0.0525159 0.214695 -0.0533482
0.0624875 0.205281 -0.0517137
0.0824577 0.205837 -0.0521637
0.102398 0.206369 -0.0525657
0.072361 0.195741 -0.0501403
0.0923186 0.196268 -0.0503415
0.0724886 0.21521 -0.0542449
0.0924365 0.215746 -0.0550094
0.0625542 0.224784 -0.0555269
0.0825013 0.225288 -0.0567408
0.102428 0.225817 -0.0576976
0.0126171 0.233291 -0.0525972
0.0326136 0.233814 -0.0547999
0.00273334 0.24291 -0.0517725
0.0227028 0.243444 -0.0545288
0.0127603 0.253002 -0.0539081
0.0326599 0.253547 -0.0571937
0.00291948 0.262655 -0.0523176
0.0227632 0.263241 -0.0562031
0.0128466 0.272852 -0.0547964
0.0325864 0.273443 -0.0592743
0.00312869 0.282549 -0.0523663
0.0227844 0.283214 -0.0574752
0.0129121 0.292834 -0.0553505
0.0324124 0.29345 -0.0611481
0.10155 0.284521 -0.0742192
0.052567 0.234285 -0.0568135
0.0724985 0.234701 -0.0586009
0.0924266 0.235218 -0.0600598
0.042635 0.243958 -0.0571858
0.0425695 0.263777 -0.0600098
0.0424035 0.283786 -0.0625029
0.0525284 0.25403 -0.0602047
0.0625408 0.244424 -0.0595564
0.0824372 0.244814 -0.0616488
0.102348 0.245337 -0.0633158
0.0723753 0.254319 -0.062964
0.0922693 0.254821 -0.0651762
0.0523031 0.273938 -0.0634924
0.0817398 0.284364 -0.0711411
0.0623676 0.264248 -0.0634127
0.0620362 0.284248 -0.0670648
0.0821877 0.264493 -0.0664315
0.102085 0.265 -0.0687918
0.0720245 0.274108 -0.0673243
0.0918805 0.27457 -0.0703721
0.112023 0.177275 -0.0456024
0.121838 0.167762 -0.0432099
0.141734 0.167989 -0.0429856
0.16163 0.16827 -0.0428186
0.13192 0.177559 -0.045528
0.151818 0.177878 -0.0453864
0.112239 0.196747 -0.050453
0.112353 0.216228 -0.0556265
0.122103 0.187284 -0.0477486
0.141981 0.187492 -0.0476842
0.161865 0.187791 -0.0476577
0.122298 0.206782 -0.0527223
0.142172 0.206963 -0.052889
0.162045 0.207262 -0.0530273
0.132119 0.196984 -0.0503631
0.152007 0.197307 -0.0504123
0.12231 0.22618 -0.058451
0.132245 0.216393 -0.0557323
0.152124 0.216689 -0.05599
0.142224 0.226322 -0.0586378
0.162095 0.226583 -0.0589656
0.171702 0.17814 -0.0452683
0.181511 0.168531 -0.0424995
0.201394 0.168725 -0.0424307
0.221269 0.168846 -0.0425398
0.191566 0.178408 -0.0449498
0.211436 0.178544 -0.0450802
0.2313 0.178662 -0.0451953
0.181739 0.188033 -0.0476364
0.201593 0.188251 -0.0475658
0.221453 0.188405 -0.0476904
0.181914 0.2075 -0.0531614
0.171884 0.197574 -0.0504678
0.201756 0.207708 -0.0532083
0.221605 0.207873 -0.0533729
0.191738 0.197807 -0.0504516
0.211595 0.197979 -0.0505942
0.231449 0.198134 -0.0507459
0.171999 0.216931 -0.0562303
0.191854 0.217137 -0.0564173
0.211704 0.217313 -0.0566165
0.231551 0.217469 -0.0568342
0.181973 0.226785 -0.0592857
0.201827 0.226963 -0.059532
0.221678 0.227118 -0.0597847
0.131663 0.274811 -0.0744276
0.151621 0.274946 -0.0756017
0.112335 0.235698 -0.0611084
0.111775 0.274752 -0.0726878
0.112175 0.2553 -0.0668747
0.141887 0.265151 -0.0715534
0.161807 0.265277 -0.0724047
0.122233 0.245718 -0.0643514
0.121997 0.265397 -0.0703389
0.132241 0.235771 -0.0617249
0.152134 0.236014 -0.0622766
0.142169 0.245683 -0.0650288
0.162059 0.245879 -0.0656136
0.132095 0.255217 -0.067971
0.152002 0.255382 -0.0687874
0.201651 0.265283 -0.0735222
0.221563 0.265208 -0.0739223
0.181726 0.265318 -0.073046
0.172007 0.236203 -0.062718
0.191882 0.236366 -0.0630352
0.211752 0.236505 -0.063355
0.231621 0.236629 -0.0636951
0.181933 0.246019 -0.0660694
0.201811 0.246147 -0.0664306
0.221685 0.246259 -0.0667901
0.171899 0.255502 -0.0694246
0.191796 0.255605 -0.0698602
0.211688 0.255691 -0.0702586
0.231577 0.255771 -0.0706503
0.241342 0.284217 -0.0817047
0.321031 0.283939 -0.0839823
0.340977 0.283763 -0.0842738
0.360916 0.283519 -0.0845032
0.251243 0.274285 -0.0788092
0.271183 0.274355 -0.0792496
0.291124 0.27435 -0.0796577
0.311065 0.274279 -0.0800196
0.261159 0.284127 -0.0827072
0.281119 0.284137 -0.0831749
0.301078 0.28408 -0.0835992
[...]
POINT_DATA 5050
VECTORS alpha float
-1.23848e-06 3.25329e-05 -1.06276e-05
-2.35391e-06 6.68279e-05 -2.4188e-05
-2.95758e-06 9.56873e-05 -3.58339e-05
-2.94417e-06 0.000111479 -4.26185e-05
-0.000765452 4.89381e-06 1.72224e-05
-0.000779217 9.13023e-06 1.51271e-05
-0.000792622 1.28896e-05 1.41618e-05
-2.26035e-06 0.000113611 -4.45601e-05
-1.66622e-06 0.000105933 -4.18307e-05
-0.000752482 8.82123e-07 2.43055e-05
-2.30393e-05 -0.00182795 0.000321032
-1.43712e-05 -0.00111319 0.000190495
-2.43413e-05 -0.00211423 0.000402352
-1.47461e-05 -0.00127068 0.000229961
-0.000289412 -2.79103e-06 -1.32373e-05
-0.00044739 -4.42107e-06 -2.07869e-05
-2.30594e-05 -0.00237237 0.000484841
-1.36679e-05 -0.00141102 0.000269719
-0.000258329 -1.75485e-06 -8.6876e-06
-0.000397653 -2.70083e-06 -1.3557e-05
-1.92786e-05 -0.00259651 0.000564494
-1.12469e-05 -0.00153107 0.000308444
-0.000222935 -8.03024e-07 -4.02424e-06
-0.000341293 -1.20498e-06 -6.28874e-06
-7.4852e-06 -0.000569943 9.49207e-05
-7.3896e-06 -0.000635429 0.000108894
-6.65016e-06 -0.000692162 0.000122825
-0.000512057 -5.11692e-06 -2.17414e-05
-4.23519e-06 -0.000324305 5.22079e-05
-2.39375e-06 -0.000186414 2.91234e-05
-1.38139e-06 -0.000109556 1.67398e-05
-3.99719e-06 -0.000351268 5.62447e-05
-2.19663e-06 -0.000196465 2.99133e-05
-1.25818e-06 -0.000114796 1.67246e-05
-0.000538156 -5.00143e-06 -2.06475e-05
-0.000547547 -4.46706e-06 -1.78883e-05
-3.4822e-06 -0.00037329 6.10264e-05
-1.86568e-06 -0.000203635 3.1031e-05
-1.06486e-06 -0.000118284 1.69315e-05
-0.000453058 -3.16914e-06 -1.41151e-05
-0.000474094 -2.99814e-06 -1.33473e-05
-0.000480599 -2.61382e-06 -1.1488e-05
-5.35535e-06 -0.000738915 0.000136554
-2.78576e-06 -0.000389775 6.6127e-05
-1.46778e-06 -0.000207797 3.2465e-05
-8.39647e-07 -0.000120054 1.74104e-05
-0.000386592 -1.41909e-06 -6.40406e-06
-0.000402226 -1.3147e-06 -6.04024e-06
-0.000405858 -1.12806e-06 -5.21964e-06
-2.03817e-05 -0.00151884 0.000247253
-1.32053e-05 -0.000941724 0.000154989
-0.000316264 -4.12124e-06 -1.64504e-05
-0.000490545 -6.66895e-06 -2.59184e-05
-1.66123e-05 -0.00119082 0.000177046
-1.12352e-05 -0.000758326 0.000119431
-0.000338285 -5.38668e-06 -1.79851e-05
-0.000526245 -8.85471e-06 -2.84799e-05
-0.000355727 -6.65243e-06 -1.69031e-05
-0.000554837 -1.1033e-05 -2.69618e-05
-1.1996e-05 -0.000847343 0.000114175
-8.56798e-06 -0.000564748 8.54061e-05
-0.00036829 -7.47469e-06 -1.24154e-05
-0.000575757 -1.23629e-05 -1.99094e-05
-7.18412e-06 -0.000497201 8.22973e-05
-0.000563564 -7.84585e-06 -2.76907e-05
-4.28245e-06 -0.000293191 4.89265e-05
-2.50347e-06 -0.000173921 2.91441e-05
-1.45601e-06 -0.000102918 1.73107e-05
-0.000594199 -7.67805e-06 -2.588e-05
-0.000606147 -7.00137e-06 -2.21688e-05
-6.48369e-06 -0.000418046 6.91813e-05
-5.33333e-06 -0.000332973 5.55593e-05
-0.000606599 -1.08181e-05 -3.14817e-05
-4.09602e-06 -0.000258191 4.46342e-05
-2.48239e-06 -0.000158997 2.86333e-05
-1.45567e-06 -9.4808e-05 1.75568e-05
-0.000641362 -1.0417e-05 -2.88815e-05
-0.000655786 -9.66978e-06 -2.48442e-05
-0.000641307 -1.34297e-05 -2.95581e-05
-0.00066705 -1.48934e-05 -2.13932e-05
-0.000679834 -1.30236e-05 -2.79996e-05
-0.000696561 -1.23558e-05 -2.44549e-05
-3.62756e-06 -0.000219406 3.94101e-05
-2.31545e-06 -0.000141818 2.74587e-05
-1.37271e-06 -8.53058e-05 1.73362e-05
-0.000708804 -1.53476e-05 -2.26051e-05
-0.000727486 -1.47856e-05 -1.99722e-05
-0.000552262 -3.84537e-06 -1.33638e-05
-0.000483625 -2.21478e-06 -8.46019e-06
-8.44726e-07 -7.11207e-05 1.06743e-05
-7.99961e-07 -7.80099e-05 1.08605e-05
-6.18651e-07 -5.59481e-05 8.07246e-06
-5.60713e-07 -5.31407e-05 7.61882e-06
-6.49316e-07 -6.69195e-05 8.88121e-06
-6.33204e-07 -6.79579e-05 8.86331e-06
-0.000558835 -2.97234e-06 -9.76346e-06
-0.0005696 -2.3191e-06 -7.89041e-06
-6.98854e-07 -8.36573e-05 1.1135e-05
-6.22504e-07 -7.68074e-05 9.82987e-06
-6.39615e-07 -8.16611e-05 1.01639e-05
-0.000489021 -1.72414e-06 -6.58128e-06
-0.000498688 -1.28488e-06 -5.28761e-06
-5.92053e-07 -8.81404e-05 1.19219e-05
-5.64489e-07 -8.56229e-05 1.10194e-05
-6.06691e-07 -9.42212e-05 1.16815e-05
-0.000407294 -9.62789e-07 -3.68208e-06
-0.000411567 -7.38008e-07 -2.98683e-06
-0.000420194 -5.41492e-07 -2.42487e-06
-0.00058414 -1.50087e-06 -2.67743e-06
-0.000512123 -7.40753e-07 -1.28524e-06
-5.26959e-07 -5.5022e-05 7.80307e-06
-6.12438e-07 -7.21358e-05 9.1849e-06
-4.89604e-07 -5.68078e-05 8.0205e-06
-4.50504e-07 -5.63314e-05 8.04214e-06
-5.76863e-07 -7.43881e-05 9.38158e-06
-5.28435e-07 -7.28956e-05 9.23811e-06
-0.000601067 -4.87894e-07 3.20214e-06
-0.00061843 -5.02141e-07 1.07982e-06
-0.00063476 -5.12023e-07 -1.14909e-06
-6.2816e-07 -8.80682e-05 1.05314e-05
-6.12241e-07 -9.07325e-05 1.0761e-05
-5.60012e-07 -8.82471e-05 1.04308e-05
-0.000527847 -3.89112e-07 9.92995e-07
-0.000543958 -3.51179e-07 -1.85027e-07
-0.000559069 -3.10124e-07 -1.44457e-06
-6.22572e-07 -0.000102739 1.23049e-05
-6.13647e-07 -0.000105776 1.24479e-05
-5.63968e-07 -0.000102334 1.18968e-05
-0.000432534 -2.7379e-07 3.65977e-07
-0.000447014 -2.42532e-07 -5.13768e-08
-0.000461849 -2.11953e-07 -5.118e-07
-0.000475725 -1.82734e-07 -1.03063e-06
-0.000612199 -6.29019e-06 -1.72287e-05
-0.000663299 -8.7671e-06 -1.91401e-05
-0.000705466 -1.14006e-05 -1.88185e-05
-0.000737523 -1.38069e-05 -1.4965e-05
-8.74462e-07 -6.33611e-05 1.07158e-05
-5.70402e-07 -4.43538e-05 7.35915e-06
-4.6442e-07 -3.77526e-05 6.29751e-06
-0.000619635 -5.12993e-06 -1.24264e-05
-0.000631056 -4.16445e-06 -9.67392e-06
-8.27333e-07 -5.47283e-05 1.03945e-05
-7.01418e-07 -4.53016e-05 9.59579e-06
-4.5027e-07 -3.21885e-05 6.10505e-06
-2.93316e-07 -2.19171e-05 4.20328e-06
-0.000671488 -7.48811e-06 -1.44767e-05
-0.000683466 -6.22481e-06 -1.10182e-05
-0.000714419 -9.68193e-06 -1.50086e-05
-0.000726842 -8.0869e-06 -1.1265e-05
-2.93145e-07 -1.95837e-05 4.22506e-06
-8.41606e-08 -5.85234e-06 1.28466e-06
-0.000747007 -1.09705e-05 -1.28889e-05
-0.000759507 -8.91488e-06 -9.32404e-06
-0.000646364 -3.42551e-06 -5.04255e-06
-4.09117e-07 -3.73199e-05 6.23384e-06
-3.79703e-07 -3.86243e-05 6.45496e-06
-3.57188e-07 -3.91698e-05 6.62979e-06
-0.00066386 -1.09112e-06 5.12841e-06
-0.000681861 -1.02228e-06 2.84521e-06
-0.00069882 -9.483e-07 4.58607e-07
-0.000699206 -5.1052e-06 -5.38848e-06
-0.00074285 -6.48889e-06 -4.83208e-06
-0.000775349 -6.60931e-06 -2.24071e-06
-2.27117e-07 -1.91876e-05 3.71269e-06
-2.12775e-07 -1.99984e-05 3.88874e-06
-2.11831e-07 -2.1533e-05 4.23273e-06
-0.000717249 -1.60517e-06 6.38744e-06
-0.000735719 -1.48468e-06 3.88613e-06
-0.000753181 -1.37609e-06 1.23623e-06
-1.184e-08 -9.02149e-07 1.99778e-07
-0.000761131 -2.6945e-06 5.70652e-06
-0.000779823 -2.35476e-06 3.84695e-06
-0.000797536 -2.06822e-06 1.71483e-06
-1.41049e-08 -1.23842e-06 2.78032e-07
-3.9511e-08 -3.73432e-06 8.43638e-07
-0.000793617 -4.24128e-06 5.1196e-06
-0.000812084 -3.55038e-06 3.98142e-06
-0.00082963 -2.94725e-06 2.48653e-06
-6.68917e-06 -0.000492687 5.94273e-05
-5.27421e-06 -0.000363761 5.30007e-05
-0.000375699 -8.20316e-06 -3.82281e-06
-0.000588647 -1.36351e-05 -6.41712e-06
-1.65767e-06 -0.000131074 1.3693e-05
-2.06106e-06 -0.00015788 2.16677e-05
-0.000378347 -8.89495e-06 7.40789e-06
2.72433e-06 0.000235027 -2.05427e-05
5.64753e-07 5.17175e-05 -6.59666e-06
-0.0005941 -1.47227e-05 1.16926e-05
-0.000375094 -9.14568e-06 2.12529e-05
-0.000590256 -1.49982e-05 3.28059e-05
5.35859e-06 0.00060124 -4.29083e-05
1.72228e-06 0.000262503 -3.11168e-05
-3.66764e-06 -0.000243125 4.1464e-05
-0.000683545 -1.60737e-05 -8.24801e-06
-2.77399e-06 -0.000177306 3.37844e-05
-1.93312e-06 -0.000122669 2.55886e-05
-1.16799e-06 -7.46512e-05 1.66607e-05
-0.000728031 -1.73727e-05 -1.00916e-05
-0.000748532 -1.71547e-05 -9.13121e-06
-1.99057e-06 -0.000150527 2.55766e-05
-5.58259e-07 -5.5117e-05 9.24637e-06
1.75837e-07 4.19115e-05 -6.96227e-06
-1.76581e-06 -0.000132975 2.64634e-05
-1.36103e-06 -0.000101649 2.26391e-05
-8.38404e-07 -6.2798e-05 1.51763e-05
-0.000691574 -1.74046e-05 1.04829e-05
-0.000688587 -1.78945e-05 3.32639e-05
-7.98788e-07 -8.64838e-05 1.7791e-05
-7.16939e-07 -7.89865e-05 1.85465e-05
-4.49568e-07 -4.99106e-05 1.28896e-05
-0.000738227 -1.8712e-05 7.44397e-06
-0.000760442 -1.8977e-05 6.04283e-06
-0.000736869 -1.93211e-05 2.90488e-05
-0.000760561 -1.98778e-05 2.40094e-05
-8.04326e-08 -3.84782e-05 8.11424e-06
-4.57718e-08 -5.49305e-05 1.35683e-05
-2.28839e-08 -3.60971e-05 9.92223e-06
-0.000366271 -9.34144e-06 3.74758e-05
-0.000577661 -1.51144e-05 5.85586e-05
8.39652e-06 0.0009631 -4.96018e-05
1.94298e-06 0.000472182 -4.93511e-05
-0.000352104 -9.69886e-06 5.46622e-05
-0.000556663 -1.5139e-05 8.52632e-05
7.6692e-06 0.00131787 -3.94756e-05
-1.24659e-06 0.000679317 -6.07536e-05
-0.000331848 -1.03675e-05 7.13137e-05
-0.000525757 -1.52318e-05 0.000111326
7.5462e-06 0.00165883 -1.48167e-05
-6.09434e-06 0.000880186 -6.43823e-05
-0.000306293 -1.09366e-05 8.6301e-05
-0.000486367 -1.47844e-05 0.000134838
-3.20371e-07 8.59506e-06 -2.47676e-06
-0.000675829 -1.75575e-05 6.15443e-05
-0.00072524 -1.85803e-05 5.48367e-05
-0.000750447 -1.9492e-05 4.63229e-05
-5.23882e-08 0.000139566 -2.21447e-05
-2.15875e-06 0.000237189 -3.53817e-05
-5.89668e-06 0.000333216 -4.55845e-05
-0.000653257 -1.67859e-05 9.12803e-05
-4.56935e-08 1.06107e-05 -2.22733e-06
2.1628e-07 -2.99574e-05 7.53844e-06
1.68068e-07 -2.1674e-05 6.13779e-06
-0.000703479 -1.76989e-05 8.15927e-05
-0.000730268 -1.90753e-05 6.86774e-05
-0.000619052 -1.61431e-05 0.000119507
-7.27444e-07 2.20599e-05 -5.43818e-06
-9.22065e-07 6.04781e-05 -1.24798e-05
-2.92488e-06 0.00011045 -2.17867e-05
8.36212e-08 -4.22683e-06 1.06551e-06
1.41441e-07 -6.75613e-06 1.93944e-06
-0.000670511 -1.58664e-05 0.000108735
-0.000699039 -1.71783e-05 9.04017e-05
-0.000759925 -1.57302e-05 -7.07691e-06
-5.36193e-07 -3.52623e-05 8.4321e-06
-9.94276e-08 -6.8677e-06 1.68761e-06
1.37898e-07 1.00299e-05 -2.52163e-06
-0.000769872 -1.23591e-05 -5.61662e-06
-0.000782357 -1.03045e-05 -2.9376e-06
-0.000772747 -1.79069e-05 5.50473e-06
-0.000773734 -1.90656e-05 1.93661e-05
-3.17031e-07 -2.46705e-05 6.46782e-06
7.13322e-08 5.94043e-06 -1.6213e-06
2.9277e-07 2.5706e-05 -7.21138e-06
-1.18003e-07 -1.36825e-05 3.87566e-06
1.55464e-07 1.86047e-05 -5.54289e-06
3.26562e-07 4.08344e-05 -1.25437e-05
-0.000783246 -1.27666e-05 2.43569e-06
-0.000795479 -1.09969e-05 2.98017e-06
-1.20163e-09 -2.36439e-06 7.19801e-07
-0.000784478 -1.18489e-05 1.16058e-05
-0.000796597 -1.04004e-05 9.39401e-06
3.65082e-08 3.10915e-05 -1.00988e-05
7.40384e-08 5.5401e-05 -1.8546e-05
-0.000798051 -8.03901e-06 -1.46642e-06
2.20642e-07 1.70615e-05 -4.35604e-06
1.92374e-07 1.72085e-05 -4.43295e-06
1.4243e-07 1.3814e-05 -3.57668e-06
-0.000815929 -5.28078e-06 6.71849e-06
-0.000834185 -4.66342e-06 6.14504e-06
-0.000851603 -4.21789e-06 5.31084e-06
3.81553e-07 3.46584e-05 -9.96192e-06
3.45346e-07 3.52661e-05 -1.02126e-05
2.82886e-07 3.10289e-05 -9.03076e-06
4.15035e-07 5.14716e-05 -1.62409e-05
-0.000810646 -8.94509e-06 3.40401e-06
3.91586e-07 5.24587e-05 -1.67221e-05
3.33464e-07 4.73966e-05 -1.52026e-05
-0.000827778 -7.00008e-06 6.61915e-06
-0.000845397 -6.36177e-06 7.09752e-06
-0.000862258 -6.07296e-06 7.37643e-06
-0.00081134 -8.5533e-06 8.23041e-06
-0.000827839 -7.3865e-06 8.62163e-06
-0.000844915 -6.56884e-06 9.50666e-06
-0.00086134 -6.24019e-06 1.03342e-05
1.44217e-07 6.75075e-05 -2.32073e-05
1.5564e-07 6.88327e-05 -2.39349e-05
1.445e-07 6.29954e-05 -2.20484e-05
-0.000727504 -6.53355e-06 4.94388e-05
-0.00073958 -3.69592e-06 3.48356e-05
-0.000764735 -1.8804e-05 3.64565e-05
-0.000715723 -1.1592e-05 6.7286e-05
-0.000745825 -1.91232e-05 5.38134e-05
-1.10394e-06 5.51205e-05 -1.9863e-05
-1.46038e-06 8.26488e-05 -3.07937e-05
-6.90213e-08 9.15417e-06 -2.90415e-06
-4.18026e-07 2.08064e-05 -6.73887e-06
-0.000776014 -9.73229e-06 2.4157e-05
-0.000788088 -8.58657e-06 1.87832e-05
-2.86449e-07 4.32587e-05 -1.49526e-05
-3.95454e-07 6.92846e-05 -2.47459e-05
-0.000757147 -6.67334e-06 3.51378e-05
-0.000768999 -5.83884e-06 2.61344e-05
-1.21709e-06 9.93122e-05 -3.83546e-05
-9.26145e-07 9.21829e-05 -3.58908e-05
-1.43329e-06 9.72799e-05 -3.71396e-05
-0.00080222 -6.84292e-06 1.3476e-05
-0.000817925 -5.80325e-06 1.33383e-05
-0.000834181 -5.14059e-06 1.42502e-05
-0.000849894 -5.05551e-06 1.54152e-05
-3.78731e-07 8.27e-05 -3.02642e-05
-3.11494e-07 8.43144e-05 -3.12836e-05
-2.34215e-07 7.77756e-05 -2.91143e-05
-0.000782317 -4.33279e-06 1.85039e-05
-0.000796855 -3.53153e-06 1.65868e-05
-0.000811848 -3.12525e-06 1.62827e-05
-0.000826372 -3.37017e-06 1.65077e-05
-1.17584e-06 9.30277e-05 -3.69339e-05
-2.54786e-07 4.81573e-05 -2.03384e-05
-1.64906e-07 4.20411e-05 -1.78353e-05
-9.70551e-08 3.68725e-05 -1.56414e-05
-0.000804376 -4.55187e-06 1.8198e-05
-0.000815219 -1.30123e-06 1.74385e-05
-0.000824555 1.55368e-06 1.59282e-05
-0.000832444 4.20784e-06 1.39418e-05
-7.64417e-07 7.89541e-05 -3.21278e-05
-5.27653e-07 6.62191e-05 -2.73515e-05
-3.58708e-07 5.60018e-05 -2.33818e-05
-0.000838944 6.74683e-06 1.16145e-05
-0.000844391 9.51671e-06 9.48667e-06
-1.17262e-07 4.15457e-05 -1.74706e-05
-7.89386e-08 3.65136e-05 -1.5432e-05
-5.06115e-08 3.22445e-05 -1.36433e-05
-0.000795969 8.25392e-06 1.03382e-05
-0.000848867 6.89367e-06 1.01884e-05
-1.03974e-07 3.19652e-05 -1.36045e-05
-6.82746e-08 2.69874e-05 -1.16052e-05
-3.87058e-08 2.18472e-05 -9.45301e-06
-1.73107e-08 1.65255e-05 -7.17855e-06
-2.98173e-09 1.10829e-05 -4.8129e-06
2.80609e-09 5.56818e-06 -2.40755e-06
-0.00080558 8.12704e-06 -1.09626e-06
-0.000805558 1.18078e-05 -3.36063e-06
-0.000852672 -6.88112e-06 5.90282e-06
-0.000855169 -3.25509e-06 4.26739e-06
-0.000857049 3.62518e-07 2.45556e-06
-0.000858366 4.01594e-06 1.04842e-06
-0.000859083 7.64573e-06 -7.90631e-07
-0.000859222 1.12934e-05 -2.50917e-06
1.71035e-11 1.54978e-08 -6.62802e-09
-2.02698e-08 2.81058e-05 -1.1969e-05
-1.29334e-08 2.384e-05 -1.02441e-05
-6.7585e-09 1.93572e-05 -8.36431e-06
-2.19305e-09 1.46722e-05 -6.35449e-06
4.86107e-10 9.8494e-06 -4.26185e-06
1.19333e-09 4.95093e-06 -2.13335e-06
-3.89516e-07 -5.31184e-05 7.67406e-06
-4.55128e-07 -6.78209e-05 8.65095e-06
-4.82041e-07 -8.13903e-05 9.59755e-06
-3.27095e-07 -4.76571e-05 6.88796e-06
-2.58009e-07 -4.10351e-05 5.94233e-06
-1.9565e-07 -3.41532e-05 4.93981e-06
-3.74237e-07 -6.02212e-05 7.67454e-06
-2.94171e-07 -5.16046e-05 6.55838e-06
-2.23652e-07 -4.3046e-05 5.4482e-06
-0.000649208 -9.18959e-07 1.00493e-06
-0.000661553 -7.38972e-07 -7.30404e-07
-0.000671928 -5.40642e-07 -2.48542e-06
-3.96511e-07 -7.18075e-05 8.41194e-06
-3.11516e-07 -6.13303e-05 7.13457e-06
-2.37519e-07 -5.12322e-05 5.9191e-06
-0.000572355 -5.71224e-07 4.36762e-07
-0.000583707 -4.04301e-07 -6.5673e-07
-0.000593233 -2.22188e-07 -1.75247e-06
-4.88308e-07 -9.37972e-05 1.07619e-05
-3.99827e-07 -8.239e-05 9.34514e-06
-3.14771e-07 -7.02071e-05 7.88342e-06
-2.40903e-07 -5.87183e-05 6.53398e-06
-0.000487904 -2.77636e-07 1.71215e-07
-0.000498276 -2.05071e-07 -4.69282e-07
-0.000506976 -1.25848e-07 -1.11866e-06
-0.000680635 -9.89879e-07 5.4964e-08
-1.3039e-07 -2.77071e-05 4.04387e-06
-8.93326e-08 -2.21488e-05 3.24485e-06
-5.92515e-08 -1.7587e-05 2.57721e-06
-1.54452e-07 -3.52752e-05 4.49038e-06
-1.08792e-07 -2.86541e-05 3.65e-06
-7.47193e-08 -2.32006e-05 2.95251e-06
-0.000688259 -8.4215e-07 1.172e-08
-0.000694783 -5.32118e-07 -1.0506e-06
-1.69349e-07 -4.2269e-05 4.8877e-06
-1.21892e-07 -3.46992e-05 4.00027e-06
-8.59451e-08 -2.84488e-05 3.26992e-06
-0.000601272 -7.86476e-07 5.06466e-07
-0.000608202 -5.62241e-07 -2.15956e-07
-0.000614205 -3.214e-07 -8.94376e-07
-1.77415e-07 -4.86864e-05 5.39196e-06
-1.30255e-07 -4.02783e-05 4.43173e-06
-9.3992e-08 -3.33211e-05 3.64626e-06
-0.000514295 -3.22922e-07 3.23301e-07
-0.000520619 -2.1779e-07 -1.50019e-07
-0.000526121 -1.06051e-07 -6.08267e-07
-3.04746e-07 -3.78468e-05 6.50209e-06
-1.93216e-07 -2.20941e-05 4.38508e-06
-5.88442e-08 -6.15071e-06 1.39293e-06
-2.61658e-07 -3.45943e-05 5.96038e-06
-2.07551e-07 -3.00411e-05 5.20368e-06
-1.56373e-07 -2.49132e-05 4.31889e-06
-0.000714156 -1.72511e-06 1.63643e-06
-0.000727015 -1.42815e-06 -5.55554e-08
-0.000737811 -1.10529e-06 -1.76552e-06
-1.71895e-07 -2.1046e-05 4.22988e-06
-1.38988e-07 -1.85929e-05 3.76203e-06
-1.0399e-07 -1.52702e-05 3.09168e-06
-0.000769328 -2.51927e-06 2.43747e-06
-0.00078268 -2.14964e-06 8.18659e-07
-0.000793918 -1.75814e-06 -8.59428e-07
-0.00081429 -3.26537e-06 3.83351e-06
-0.000827888 -2.85787e-06 2.03729e-06
-0.00083934 -2.44332e-06 1.05269e-07
-6.2931e-08 -7.29558e-06 1.69551e-06
-5.46408e-08 -6.94963e-06 1.62707e-06
-3.88848e-08 -5.45595e-06 1.27761e-06
-0.000846484 -2.9079e-06 5.06889e-06
-0.000860009 -2.16839e-06 4.23651e-06
-0.000871403 -1.43539e-06 3.18873e-06
-0.000747003 -1.84404e-06 -1.17621e-06
-1.02446e-07 -1.98714e-05 3.48789e-06
-6.78894e-08 -1.54358e-05 2.72378e-06
-4.31209e-08 -1.18115e-05 2.0852e-06
-0.000755034 -1.1921e-06 3.86798e-07
-0.000761832 -7.32166e-07 -4.93055e-07
-0.000803755 -3.17786e-06 -3.02741e-06
-6.50023e-08 -1.17015e-05 2.40703e-06
-4.00305e-08 -8.45515e-06 1.75039e-06
-2.28704e-08 -5.82692e-06 1.207e-06
-0.000812158 -1.44989e-06 7.03009e-07
-0.000819278 -9.14248e-07 -1.39384e-07
-0.000849377 -3.51381e-06 -6.82067e-07
-0.000881414 -1.70947e-06 5.1674e-06
-0.000858226 -1.42643e-06 1.31358e-06
-0.0008655 -8.86658e-07 4.79323e-07
-1.93956e-08 -3.40815e-06 8.10807e-07
-6.73833e-09 -1.39133e-06 3.33469e-07
8.34299e-10 2.08228e-07 -4.9937e-08
-0.000890901 -2.19375e-06 1.46826e-06
-0.000898147 -1.50769e-06 1.34445e-06
-0.000700417 -7.97362e-07 -5.67733e-09
-0.000619411 -5.17337e-07 1.27079e-07
-4.7576e-08 -1.39279e-05 2.04081e-06
-3.06321e-08 -1.09729e-05 1.6115e-06
-1.84293e-08 -8.48173e-06 1.24406e-06
-5.75663e-08 -1.87355e-05 2.38103e-06
-3.78626e-08 -1.50008e-05 1.90501e-06
-2.32134e-08 -1.17258e-05 1.48543e-06
-0.000705084 -7.42694e-07 -5.37772e-07
-0.00070901 -3.54163e-07 -1.55904e-06
-0.000712166 2.59653e-08 -2.65606e-06
-6.37852e-08 -2.32533e-05 2.66464e-06
-4.25886e-08 -1.87994e-05 2.14706e-06
-2.64812e-08 -1.47925e-05 1.68361e-06
-0.000623802 -3.78478e-07 -3.39732e-07
-0.000627505 -8.23418e-08 -9.83929e-07
-0.000630492 2.12105e-07 -1.66351e-06
-6.75517e-08 -2.74665e-05 2.9897e-06
-4.57494e-08 -2.23541e-05 2.41999e-06
-2.88652e-08 -1.76685e-05 1.90428e-06
-0.000530912 -2.91722e-07 3.77576e-07
-0.00053503 -1.56577e-07 -8.41463e-08
-0.000538505 -1.72147e-08 -5.37011e-07
-0.000541315 1.21291e-07 -1.00996e-06
-1.02997e-08 -6.25402e-06 9.1793e-07
-4.19073e-09 -4.1439e-06 6.09668e-07
-7.8323e-10 -2.07632e-06 3.0507e-07
3.89959e-12 -1.52314e-08 2.22702e-09
-1.28353e-08 -8.70133e-06 1.1011e-06
-5.31151e-09 -5.78129e-06 7.32516e-07
-1.05308e-09 -2.89579e-06 3.667e-07
2.65069e-12 -1.38938e-08 1.75534e-09
-0.000714542 -3.82391e-07 1.46895e-06
-0.00071615 -4.14928e-08 2.76497e-07
-0.000716953 3.08735e-07 -8.92981e-07
-1.4533e-08 -1.10177e-05 1.24978e-06
-6.12029e-09 -7.33226e-06 8.31614e-07
-1.28907e-09 -3.67085e-06 4.16244e-07
1.16292e-12 -8.81063e-09 9.98722e-10
-0.000632756 -4.19704e-07 6.71883e-07
-0.000634277 -1.38808e-07 -5.06109e-08
-0.000635036 1.43905e-07 -7.78553e-07
-1.58225e-08 -1.31905e-05 1.42035e-06
-6.87106e-09 -8.78741e-06 9.43838e-07
-1.60218e-09 -4.39753e-06 4.71603e-07
1.39812e-13 -2.62439e-09 2.81276e-10
-0.000543447 -2.13146e-07 4.04609e-07
-0.000544873 -6.91531e-08 -4.22748e-08
-0.000545585 7.47075e-08 -4.97537e-07
-0.00076775 -1.20195e-06 -1.2488e-06
-0.000825457 -1.44085e-06 -2.85815e-07
-0.000871789 -1.48114e-06 1.09505e-06
-0.00090439 -1.9399e-06 3.57597e-06
-3.42434e-08 -8.99175e-06 1.59179e-06
-2.12058e-08 -6.83802e-06 1.21666e-06
-1.23498e-08 -5.14618e-06 9.15777e-07
-0.0007726 -1.40899e-06 -8.71002e-07
-0.000776637 -8.02837e-07 -1.47267e-06
-0.000779884 -2.10473e-07 -2.1787e-06
-1.63955e-08 -3.89572e-06 8.09812e-07
-8.84162e-09 -2.58286e-06 5.40383e-07
-4.55904e-09 -1.72465e-06 3.61044e-07
-0.000830626 -2.14884e-06 -7.36783e-07
-0.000834796 -1.45574e-06 -1.18974e-06
-0.000838135 -7.9008e-07 -1.80063e-06
-0.000877196 -2.81224e-06 -1.88784e-07
-0.000881414 -2.05575e-06 -5.46397e-07
-0.000884781 -1.33323e-06 -1.08132e-06
5.67072e-09 1.22646e-06 -2.96041e-07
6.32431e-09 1.68199e-06 -4.09244e-07
4.92324e-09 1.69756e-06 -4.13492e-07
-0.000909829 -2.26245e-06 1.076e-06