# vtk DataFile Version 3.0
vtk output
ASCII
DATASET POLYDATA
POINTS 14645 float
0.00076618 0.107053 -0.0437309
0.0207179 0.107398 -0.0453677
0.010759 0.117055 -0.043812
0.000638346 0.0874817 -0.0456654
0.0206208 0.0877277 -0.046757
0.0106596 0.09739 -0.0456174
0.000509828 0.0679783 -0.0472738
0.0205075 0.068145 -0.0479336
0.0105529 0.0778103 -0.0471624
0.000376904 0.0485187 -0.0485196
0.0203798 0.0486223 -0.048865
0.0104362 0.0582933 -0.0484189
0.000233336 0.0290963 -0.0493569
0.0202366 0.02915 -0.0494942
0.0103057 0.038831 -0.0493394
0.0306848 0.11744 -0.0458157
0.0306262 0.0976626 -0.0469843
0.0406656 0.10773 -0.0470016
0.0606135 0.108039 -0.0484538
0.0805705 0.108303 -0.0496538
0.100538 0.108516 -0.0505614
0.0506153 0.117813 -0.0476264
0.0705556 0.118136 -0.0492155
0.0905131 0.118402 -0.0504786
0.110487 0.118609 -0.051396
0.0405975 0.0879585 -0.047837
0.0605696 0.0881877 -0.0487918
0.0805424 0.0883873 -0.0495725
0.100517 0.0885524 -0.0501541
0.0505904 0.0979412 -0.0482303
0.0705561 0.0981872 -0.0493095
0.0905269 0.0983939 -0.0501582
0.110503 0.0985587 -0.0507655
0.0404993 0.0682929 -0.0485807
0.060485 0.0684529 -0.0491451
0.0804675 0.0685949 -0.0495991
0.100448 0.0687148 -0.049929
0.0305423 0.0779919 -0.0480181
0.0505254 0.0781891 -0.0488042
0.0705059 0.0783672 -0.0494724
0.0904851 0.0785199 -0.0499891
0.110464 0.0786446 -0.0503499
0.0403772 0.0487129 -0.0491963
0.0603703 0.0488137 -0.0494785
0.0803592 0.048905 -0.0496992
0.100345 0.0489837 -0.0498525
0.0304341 0.0584105 -0.048895
0.0504276 0.0585397 -0.0493248
0.0704166 0.0586587 -0.0496838
0.0904017 0.0587629 -0.0499535
0.110384 0.0588501 -0.0501334
0.0402362 0.0291998 -0.0496239
0.0602326 0.029253 -0.0497287
0.080226 0.0293018 -0.049805
0.100217 0.0293446 -0.049851
0.030307 0.0389013 -0.0495519
0.0503043 0.0389762 -0.0497392
0.0702976 0.0390463 -0.0498893
0.0902874 0.0391087 -0.0499938
0.110274 0.0391619 -0.0500537
0.000903014 0.126701 -0.041521
0.0208025 0.127167 -0.0438301
0.0108584 0.136813 -0.0418016
0.00105005 0.146425 -0.0390335
0.0208695 0.147035 -0.0421025
0.0109582 0.15666 -0.0395534
0.00122178 0.16622 -0.0362696
0.0209294 0.167 -0.0401681
0.0110745 0.176586 -0.0370575
0.00141242 0.186083 -0.0332659
0.0209763 0.187058 -0.0380316
0.0112035 0.196586 -0.0343296
0.0016468 0.205985 -0.0299983
0.0210352 0.207175 -0.0356472
0.0113696 0.216624 -0.031337
0.0307188 0.137325 -0.0445158
0.0407018 0.127611 -0.0460923
0.0606097 0.128012 -0.0481522
0.0805415 0.128349 -0.0498727
0.1005 0.128615 -0.0511939
0.0505951 0.137805 -0.0470022
0.0704952 0.138218 -0.0492029
0.0904324 0.138551 -0.0509718
0.110405 0.138804 -0.0522774
0.0307228 0.15732 -0.0430737
0.0406912 0.147594 -0.0451394
0.0605426 0.148114 -0.0478719
0.0804365 0.148536 -0.0501909
0.100381 0.148865 -0.0519903
0.0505199 0.157921 -0.0463355
0.0703614 0.15844 -0.0492231
0.0902683 0.158854 -0.0515626
0.110237 0.159164 -0.0533088
0.0307114 0.177416 -0.0414296
0.0406413 0.167699 -0.0440654
0.060414 0.168339 -0.0475504
0.0802532 0.168865 -0.0505306
0.100176 0.16927 -0.052856
0.0503992 0.178149 -0.0455587
0.070159 0.178797 -0.0491925
0.0900227 0.179309 -0.0521503
0.109985 0.179689 -0.0543703
0.0306791 0.197619 -0.0396274
0.0306537 0.217886 -0.0375569
0.0405469 0.187929 -0.042845
0.0602091 0.188704 -0.0471535
0.0799773 0.18936 -0.0508305
0.0998739 0.189861 -0.0537101
0.0502233 0.198504 -0.0446437
0.0698796 0.199309 -0.0490481
0.0896892 0.199943 -0.0526446
0.109645 0.200412 -0.0553536
0.0404351 0.208255 -0.0413773
0.0599595 0.209188 -0.046534
0.0796404 0.209991 -0.0509219
0.0995041 0.210605 -0.0543701
0.0500281 0.218954 -0.0434528
0.0695607 0.219938 -0.0486275
0.0893051 0.220715 -0.052866
0.0211718 0.227319 -0.0328971
0.00201473 0.22593 -0.0262801
0.0116696 0.236683 -0.0279345
0.021344 0.247434 -0.0299153
0.0215583 0.267495 -0.0266989
0.0119801 0.256571 -0.0244895
0.0307213 0.23817 -0.0350413
0.109257 0.221291 -0.0561639
0.0403595 0.228637 -0.0395018
0.059714 0.229728 -0.045559
0.0792885 0.230707 -0.0506792
0.0991082 0.231461 -0.054724
0.0498767 0.239454 -0.041828
0.0308098 0.258378 -0.0322808
0.0692566 0.24057 -0.0478408
0.0889158 0.241525 -0.05277
0.108839 0.242241 -0.0565268
0.0403204 0.248944 -0.0373815
0.0986954 0.252404 -0.0546139
0.0594835 0.250298 -0.0441611
0.0789339 0.251475 -0.0499888
0.108439 0.263363 -0.0563444
0.06897 0.261305 -0.0465808
0.0885388 0.262463 -0.0521223
0.0983323 0.273449 -0.0539219
0.0497398 0.259898 -0.0399172
0.0786212 0.272343 -0.0487651
0.0592917 0.270948 -0.0423297
0.0403076 0.269322 -0.0348368
0.108122 0.284547 -0.0554172
0.0980812 0.294603 -0.0523849
0.0882475 0.283472 -0.0507403
0.068764 0.282088 -0.0447401
0.0784227 0.293246 -0.0468416
0.0496799 0.280394 -0.0374539
0.0591982 0.291557 -0.0399156
0.0980395 0.315757 -0.0499298
0.107973 0.305833 -0.0535584
0.0784244 0.314102 -0.0440815
0.0881185 0.304498 -0.0485967
0.0687109 0.302791 -0.0421524
0.0497865 0.300791 -0.0343458
0.0592997 0.31209 -0.0367634
0.0309593 0.278529 -0.0292062
0.0404027 0.289583 -0.0318245
0.0406666 0.309796 -0.0281678
0.0312539 0.298669 -0.0255423
0.0982483 0.336767 -0.0465098
0.0882299 0.325464 -0.0455042
0.108052 0.327027 -0.0507405
0.108446 0.34823 -0.0466564
0.0786929 0.334848 -0.0403965
0.0988094 0.357715 -0.0418511
0.0886572 0.346362 -0.0413056
0.109173 0.369123 -0.0414117
0.0689183 0.323473 -0.0386798
0.0792762 0.355482 -0.0356849
0.0893975 0.366982 -0.0360904
0.0997103 0.378348 -0.0360264
0.0500942 0.321147 -0.0305211
0.0596513 0.332532 -0.0327805
0.069377 0.344021 -0.0343763
0.110219 0.38964 -0.0350736
0.0602491 0.352808 -0.0280442
0.0701153 0.364357 -0.0292155
0.0801654 0.37582 -0.0300474
0.0904579 0.38728 -0.0298655
0.100936 0.398621 -0.0291393
0.0505972 0.341334 -0.0260798
0.111571 0.409757 -0.0275322
0.120326 0.0490469 -0.0499526
0.120525 0.108668 -0.0512623
0.120497 0.0886701 -0.0505889
0.120425 0.0688004 -0.0501639
0.140492 0.108776 -0.0516618
0.160482 0.108855 -0.0518535
0.180469 0.108911 -0.0519448
0.200452 0.10895 -0.0519885
0.130457 0.11874 -0.0521493
0.150458 0.118839 -0.0524897
0.170457 0.118908 -0.0526702
0.190452 0.118955 -0.0527588
0.210443 0.118987 -0.0528068
0.140471 0.0887555 -0.050808
0.16045 0.0888247 -0.0508977
0.180427 0.0888756 -0.0509261
0.200403 0.0889132 -0.0509313
0.130477 0.0986608 -0.051235
0.150462 0.0987476 -0.05143
0.170446 0.0988102 -0.0515183
0.190428 0.0988549 -0.0515503
0.210406 0.0988874 -0.0515638
0.140404 0.0688661 -0.0502589
0.160381 0.0689223 -0.0502773
0.180356 0.068965 -0.0502625
0.200331 0.0689974 -0.0502403
0.13044 0.0787218 -0.0506051
0.150419 0.0787935 -0.0506916
0.170396 0.078847 -0.0507126
0.190372 0.0788864 -0.0507031
0.210347 0.0789158 -0.0506893
0.140304 0.0490902 -0.049968
0.160284 0.0491285 -0.0499473
0.180264 0.049158 -0.0499127
0.200245 0.0491808 -0.0498798
0.130361 0.0589088 -0.0502359
0.150339 0.0589608 -0.050252
0.170317 0.0590002 -0.0502331
0.190295 0.0590297 -0.0502016
0.210272 0.0590522 -0.0501741
0.120203 0.0293811 -0.0498736
0.14019 0.0294082 -0.0498552
0.160177 0.0294296 -0.0498246
0.180164 0.0294462 -0.0497909
0.200151 0.029459 -0.0497613
0.130257 0.0392035 -0.050072
0.15024 0.039236 -0.0500508
0.170223 0.039261 -0.0500157
0.190205 0.0392799 -0.0499784
0.210189 0.0392942 -0.0499471
0.22043 0.10896 -0.0520781
0.240414 0.10898 -0.0520873
0.260396 0.108993 -0.0520875
0.280376 0.109006 -0.0520965
0.300355 0.109018 -0.0521114
0.230425 0.118993 -0.0529069
0.250412 0.119005 -0.052922
0.270396 0.119016 -0.0529424
0.290379 0.119026 -0.0529645
0.22038 0.0889181 -0.0510069
0.240359 0.0889367 -0.050969
0.260337 0.0889521 -0.0509481
0.280315 0.0889658 -0.0509411
0.300292 0.0889789 -0.0509462
0.230386 0.0988878 -0.0516203
0.250365 0.0989029 -0.0516075
0.270344 0.0989156 -0.0516062
0.290323 0.0989274 -0.0516135
0.220311 0.0689962 -0.050283
0.240289 0.0690144 -0.0502349
0.260267 0.0690293 -0.0502032
0.280246 0.0690422 -0.050186
0.300226 0.069054 -0.0501824
0.230327 0.0789118 -0.050712
0.250304 0.0789277 -0.0506829
0.270281 0.0789407 -0.050667
0.29026 0.0789521 -0.0506624
0.220226 0.0491872 -0.0498941
0.240207 0.0492006 -0.0498495
0.260189 0.0492116 -0.0498185
0.280173 0.0492208 -0.0497999
0.300158 0.0492291 -0.0497933
0.230252 0.0590563 -0.050169
0.250231 0.0590689 -0.0501357
0.270211 0.0590791 -0.0501146
0.290192 0.0590878 -0.0501045
0.220138 0.0294669 -0.0497605
0.240126 0.0294744 -0.0497295
0.260115 0.0294803 -0.0497072
0.280105 0.0294852 -0.0496928
0.300096 0.0294896 -0.0496856
0.230173 0.0393016 -0.0499319
0.250157 0.0393095 -0.0499033
0.270143 0.0393157 -0.0498834
0.29013 0.0393209 -0.0498712
0.119526 0.211051 -0.0569314
0.12048 0.128805 -0.0521835
0.130358 0.138961 -0.0533348
0.140445 0.128929 -0.0528202
0.160458 0.129016 -0.0531516
0.180468 0.129072 -0.0533353
0.200473 0.129109 -0.0534421
0.150383 0.139071 -0.053855
0.170412 0.139143 -0.0541611
0.190436 0.139189 -0.0543333
0.210451 0.139219 -0.0544396
0.120364 0.149091 -0.0533347
0.120169 0.169549 -0.0546188
0.11988 0.190214 -0.0559049
0.130192 0.159349 -0.054718
0.140331 0.149227 -0.0542483
0.160376 0.149323 -0.0547472
0.180418 0.149384 -0.055044
0.200452 0.149422 -0.0552278
0.150244 0.159461 -0.0554559
0.170311 0.159541 -0.0559113
0.190372 0.159591 -0.0561846
0.210421 0.159623 -0.0563599
0.129976 0.179916 -0.0561549
0.140164 0.169682 -0.0558275
0.160244 0.169793 -0.0565205
0.180324 0.169862 -0.0569425
0.200392 0.169907 -0.0572056
0.150054 0.180024 -0.0571607
0.170165 0.180118 -0.0577796
0.190268 0.180176 -0.0581567
0.210356 0.180218 -0.0583966
0.129678 0.200718 -0.0575243
0.139916 0.190317 -0.0574344
0.160043 0.190447 -0.0583343
0.180174 0.190527 -0.0588877
0.20029 0.190581 -0.0592306
0.149794 0.200779 -0.058815
0.16996 0.200891 -0.0596042
0.19012 0.200962 -0.0600869
0.210257 0.201017 -0.0603893
0.139596 0.211196 -0.058907
0.159782 0.211256 -0.0599837
0.179975 0.211348 -0.0606746
0.200151 0.211411 -0.0611014
0.220454 0.129128 -0.0535769
0.240445 0.129148 -0.0536179
0.26044 0.129156 -0.0536411
0.280431 0.129164 -0.0536717
0.300417 0.129174 -0.0537057
0.230431 0.139234 -0.0545831
[...]
POINT_DATA 14645
VECTORS alpha float
4.88435e-06 0.00160743 0.000145962
7.78801e-07 0.00085218 5.13494e-05
-0.000310412 -5.45072e-06 2.59387e-05
4.96166e-06 0.00127515 9.44051e-05
1.76605e-06 0.000655995 3.217e-05
-0.000333596 -4.10942e-06 1.84217e-05
4.62739e-06 0.000928792 5.18058e-05
2.0076e-06 0.000453125 1.66056e-05
-0.000351695 -2.83914e-06 1.15001e-05
3.50731e-06 0.000572635 2.03598e-05
1.46916e-06 0.000246045 5.47713e-06
-0.000364765 -1.70819e-06 5.93114e-06
1.53977e-06 0.000210532 2.79227e-06
2.71965e-07 3.69885e-05 1.99659e-07
-0.000372741 -7.46902e-07 2.03509e-06
-0.000493589 -8.52217e-06 4.11467e-05
-0.000529089 -6.52327e-06 2.89334e-05
-3.25574e-07 0.000321054 9.15312e-06
-2.54296e-07 0.00010409 8.35763e-08
-5.74808e-08 1.77003e-05 -3.97447e-07
-1.61563e-08 4.72616e-06 -1.9119e-07
-0.00058277 -9.0745e-06 4.34007e-05
-0.000630806 -8.3432e-06 3.88431e-05
-0.000657192 -6.98742e-06 3.06274e-05
-0.000672765 -5.45473e-06 2.15857e-05
3.57392e-07 0.000226866 5.36869e-06
4.1977e-08 5.47295e-05 6.22497e-08
-2.51779e-09 -8.48139e-06 1.49781e-07
-1.77864e-09 -1.05406e-05 3.38054e-07
-0.000622802 -7.07535e-06 3.02698e-05
-0.00067213 -6.6208e-06 2.67776e-05
-0.000698515 -5.66342e-06 2.08129e-05
-0.00071393 -4.53339e-06 1.44338e-05
5.0545e-07 0.000130698 2.30286e-06
1.80895e-08 5.24526e-06 2.55699e-09
-1.08156e-07 -3.42027e-05 4.67673e-07
-7.66571e-08 -2.54541e-05 6.20318e-07
-0.000556509 -4.59845e-06 1.77172e-05
-0.000653399 -5.03257e-06 1.84521e-05
-0.000703348 -4.79078e-06 1.60649e-05
-0.000729426 -4.17991e-06 1.2231e-05
-0.000744533 -3.42286e-06 8.28322e-06
1.94014e-07 3.3755e-05 3.12798e-07
-2.41998e-07 -4.37528e-05 1.09334e-07
-3.14137e-07 -5.91418e-05 7.12462e-07
-2.02934e-07 -3.98157e-05 7.58203e-07
-0.000576006 -2.7594e-06 8.86893e-06
-0.00067469 -3.07175e-06 9.09692e-06
-0.000724599 -2.97995e-06 7.73583e-06
-0.00075006 -2.65653e-06 5.70258e-06
-0.000764695 -2.23139e-06 3.72041e-06
-4.58066e-07 -6.28568e-05 1.28842e-07
-6.55452e-07 -9.16647e-05 8.00806e-07
-5.75176e-07 -8.29561e-05 1.15515e-06
-3.55063e-07 -5.3404e-05 9.30918e-07
-0.000587361 -1.21409e-06 2.93544e-06
-0.000686404 -1.36885e-06 2.90966e-06
-0.000735541 -1.34689e-06 2.34034e-06
-0.00076001 -1.21988e-06 1.57825e-06
-0.000773958 -1.04329e-06 8.9643e-07
4.79281e-06 0.00192075 0.000203873
-8.75834e-07 0.00103893 7.32888e-05
-0.0002824 -6.78193e-06 3.34607e-05
5.33087e-06 0.0022099 0.000267514
-2.87606e-06 0.00121308 9.87643e-05
-0.00024972 -7.92482e-06 3.94523e-05
7.6789e-06 0.00246899 0.000335384
-4.50527e-06 0.00137119 0.000127815
-0.000212956 -8.69841e-06 4.2894e-05
1.26e-05 0.00269301 0.000406369
-5.00442e-06 0.00150986 0.000161085
-0.000172827 -8.86627e-06 4.27344e-05
2.00915e-05 0.00287597 0.000477544
-3.96896e-06 0.00162585 0.000197948
-0.000130154 -8.19975e-06 3.83423e-05
-0.000450398 -1.05009e-05 5.29146e-05
-1.61559e-06 0.000411837 1.35569e-05
-9.46924e-07 0.000152601 8.23107e-08
-3.29452e-07 4.39537e-05 -1.17606e-06
-1.56302e-07 2.01083e-05 -9.65783e-07
-0.000533731 -1.09332e-05 5.65719e-05
-0.000579831 -9.89717e-06 5.1275e-05
-0.000605929 -8.12751e-06 4.10882e-05
-0.000621526 -6.19358e-06 2.95779e-05
-0.000399791 -1.22504e-05 6.24399e-05
-3.45001e-06 0.000498189 1.9163e-05
-2.03382e-06 0.000199516 4.78763e-07
-8.46372e-07 6.98618e-05 -1.96756e-06
-4.44582e-07 3.53481e-05 -1.84246e-06
-0.000475948 -1.25402e-05 6.75938e-05
-0.000519434 -1.12392e-05 6.18996e-05
-0.000544915 -9.10553e-06 5.02152e-05
-0.000560379 -6.82279e-06 3.66869e-05
-0.000342703 -1.35092e-05 6.81857e-05
-5.45765e-06 0.000578209 2.70988e-05
-3.39478e-06 0.000243988 1.88324e-06
-1.57588e-06 9.49762e-05 -2.39744e-06
-8.6855e-07 5.01889e-05 -2.56791e-06
-0.000410542 -1.37118e-05 7.47246e-05
-0.000450867 -1.22436e-05 6.90236e-05
-0.000475507 -9.8506e-06 5.648e-05
-0.000490773 -7.31152e-06 4.15866e-05
-0.000280214 -1.37823e-05 6.85743e-05
-0.000213593 -1.2892e-05 6.23355e-05
-7.18832e-06 0.000650307 3.8179e-05
-4.81344e-06 0.000285455 5.04202e-06
-2.41672e-06 0.000119022 -1.95666e-06
-1.37294e-06 6.45108e-05 -2.79607e-06
-0.000338617 -1.42184e-05 7.59377e-05
-0.000375101 -1.27372e-05 7.08014e-05
-0.000398459 -1.02464e-05 5.84126e-05
-0.000413234 -7.57911e-06 4.32626e-05
-8.21085e-06 0.000712632 5.2856e-05
-5.99358e-06 0.000322813 1.05392e-05
-3.21527e-06 0.000141454 -2.09005e-07
-1.871e-06 7.79949e-05 -2.22285e-06
-0.000261583 -1.35426e-05 6.99837e-05
-0.000293472 -1.22734e-05 6.60881e-05
-0.000314965 -9.94526e-06 5.51145e-05
-7.4801e-07 0.00171622 0.000234736
3.1671e-05 0.0030118 0.000538835
-8.58761e-05 -6.4423e-06 2.96612e-05
5.92138e-06 0.00177246 0.000269704
1.40596e-05 0.00179927 0.000309135
-4.09413e-05 -3.56578e-06 1.61908e-05
-0.000144278 -1.0432e-05 4.93297e-05
-0.000328826 -7.54934e-06 4.1553e-05
-7.98917e-06 0.000763392 6.98511e-05
-6.58599e-06 0.000355387 1.82984e-05
-3.78115e-06 0.000161895 2.98689e-06
-2.25318e-06 9.04219e-05 -7.03209e-07
-0.000180953 -1.1374e-05 5.6722e-05
-7.38151e-05 -6.28415e-06 2.87887e-05
-0.000207452 -1.06786e-05 5.49358e-05
-0.000226359 -8.86373e-06 4.67565e-05
-0.000238755 -6.69938e-06 3.55384e-05
-5.65032e-06 0.000800626 8.9752e-05
-2.3534e-06 0.000101461 1.98086e-06
-6.25006e-06 0.000382242 2.81105e-05
-3.87779e-06 0.000179763 7.69217e-06
-0.00014474 -5.01267e-06 2.45109e-05
-0.000118863 -7.42536e-06 3.57663e-05
-0.000134417 -6.42069e-06 3.15767e-05
-2.0341e-06 0.000110709 5.91669e-06
-9.8571e-05 -7.45594e-06 3.52957e-05
-3.18345e-06 0.000194568 1.455e-05
-4.50504e-06 0.000402337 4.09984e-05
-1.77169e-06 0.000824797 0.000112272
-4.85281e-05 -2.07548e-06 9.13373e-06
-1.17838e-06 0.000118186 1.11741e-05
-4.09698e-05 -2.40401e-06 1.0657e-05
-2.95486e-05 -2.21339e-06 9.84172e-06
-1.70274e-06 0.000205973 2.31662e-05
-1.61632e-05 -1.45743e-06 6.41463e-06
-1.41653e-06 0.000415255 5.61919e-05
2.13404e-07 0.000123539 1.75759e-05
4.81831e-05 2.5264e-06 -9.78065e-06
6.96508e-07 0.00021384 3.33225e-05
5.24302e-05 3.70383e-06 -1.47057e-05
5.9069e-05 5.30814e-06 -2.12534e-05
6.49934e-05 6.92244e-06 -2.78765e-05
3.05765e-06 0.000420948 7.30058e-05
-3.69442e-06 -3.74039e-07 1.61063e-06
3.75591e-06 0.000834073 0.00013686
1.12329e-05 0.000830914 0.000162299
6.49975e-05 7.68693e-06 -3.06628e-05
2.02317e-06 0.000126542 2.46217e-05
0.000143854 1.22191e-05 -4.24303e-05
0.000143287 8.99872e-06 -3.06242e-05
0.000235763 1.77373e-05 -5.16975e-05
3.81355e-06 0.000217868 4.42316e-05
4.22842e-06 0.000127284 3.19873e-05
0.000232464 2.31413e-05 -7.05601e-05
0.00032379 2.79726e-05 -7.14568e-05
0.00014529 1.55069e-05 -5.50521e-05
7.45398e-06 0.000218054 5.53739e-05
0.000316845 3.58494e-05 -9.68146e-05
6.5565e-06 0.000125678 3.94289e-05
0.000143484 1.7978e-05 -6.49589e-05
8.63329e-06 0.00042002 9.01405e-05
0.000228555 2.8224e-05 -8.92845e-05
0.000405482 3.93878e-05 -8.86515e-05
1.46584e-05 0.000411532 0.000106106
0.000307843 4.29209e-05 -0.000120994
1.09778e-05 0.000214071 6.5969e-05
0.000395552 5.01719e-05 -0.000118872
8.56531e-06 0.000121757 4.61252e-05
0.000218991 3.121e-05 -0.000102507
0.000480222 5.18961e-05 -0.000100179
-2.87587e-08 -5.74263e-06 1.37549e-07
-8.00693e-08 2.89942e-05 -1.59785e-06
9.99703e-09 1.74305e-05 -7.59075e-07
1.84632e-08 5.79655e-06 -1.88372e-07
-1.88416e-07 6.43168e-05 -4.25782e-06
-1.84672e-07 9.40437e-05 -6.75999e-06
-1.09107e-07 0.000110534 -8.31697e-06
-8.91379e-09 0.000113209 -8.72506e-06
-0.000684266 -3.67591e-06 1.28465e-05
-0.000694473 -2.64678e-06 7.26011e-06
-0.000705272 -1.86707e-06 3.72439e-06
-0.000716833 -1.32808e-06 1.92654e-06
-0.000728682 -9.99919e-07 1.33359e-06
1.35614e-08 5.27716e-05 -2.73964e-06
6.09029e-08 8.12169e-05 -4.56435e-06
1.19659e-07 9.65749e-05 -5.66319e-06
1.66459e-07 9.89081e-05 -5.92574e-06
-0.000725574 -3.22654e-06 7.75696e-06
-0.000736667 -2.4273e-06 3.89979e-06
-0.000748833 -1.80014e-06 1.60796e-06
-0.000762034 -1.34725e-06 6.33752e-07
-0.000775577 -1.05276e-06 5.76452e-07
1.15711e-07 4.06606e-05 -1.54248e-06
1.9718e-07 6.74489e-05 -2.75233e-06
2.43723e-07 8.14798e-05 -3.44826e-06
2.53243e-07 8.3448e-05 -3.5909e-06
-0.000756224 -2.59755e-06 3.65737e-06
-0.000768067 -2.01975e-06 1.28611e-06
-0.000781429 -1.55088e-06 -6.99039e-10
-0.000796067 -1.19832e-06 -3.7835e-07
-0.000811087 -9.55429e-07 -1.17104e-07
1.35574e-07 2.81674e-05 -7.50135e-07
2.40554e-07 5.29458e-05 -1.48769e-06
2.79135e-07 6.54704e-05 -1.87711e-06
2.66632e-07 6.70528e-05 -1.9295e-06
-0.00077635 -1.69989e-06 9.46531e-07
-0.000788786 -1.34883e-06 -2.47422e-07
-0.000803153 -1.05909e-06 -7.93203e-07
-0.000819007 -8.38785e-07 -7.94892e-07
-0.000835268 -6.86649e-07 -4.06448e-07
-1.09058e-07 -1.70103e-05 3.3009e-07
9.30226e-08 1.54766e-05 -3.1241e-07
2.11724e-07 3.79049e-05 -7.63782e-07
2.5111e-07 4.87465e-05 -9.59085e-07
2.3559e-07 4.99115e-05 -9.50831e-07
-0.000785429 -7.80791e-07 -3.51106e-07
-0.000798239 -6.32519e-07 -7.11212e-07
-0.000813363 -5.07011e-07 -8.07025e-07
-0.000830167 -4.0922e-07 -6.84731e-07
-0.000847399 -3.39912e-07 -4.0686e-07
6.20185e-08 0.000105639 -8.21636e-06
5.71549e-08 9.26148e-05 -7.38156e-06
7.45501e-08 7.83893e-05 -6.39278e-06
8.15322e-08 6.56095e-05 -5.43772e-06
8.27792e-08 5.5334e-05 -4.62662e-06
-0.000740357 -5.30228e-07 3.23131e-07
-0.000751025 -4.2027e-07 5.64423e-07
-0.000760447 -3.88819e-07 6.58599e-07
-0.000768517 -4.13719e-07 6.35308e-07
1.51901e-07 9.18672e-05 -5.4699e-06
1.41351e-07 8.00459e-05 -4.91095e-06
1.25174e-07 6.73627e-05 -4.23054e-06
1.08512e-07 5.6193e-05 -3.58921e-06
9.41447e-08 4.74129e-05 -3.05788e-06
-0.000788842 -6.55937e-07 -7.13562e-07
-0.000800878 -5.40184e-07 -2.58008e-07
-0.000811466 -4.87328e-07 8.13867e-08
-0.000820518 -4.80554e-07 3.49118e-07
2.19138e-07 7.70256e-05 -3.25211e-06
1.81268e-07 6.65542e-05 -2.88647e-06
1.44578e-07 5.55729e-05 -2.46339e-06
1.14395e-07 4.61511e-05 -2.07981e-06
9.17486e-08 3.89721e-05 -1.77413e-06
-0.000825627 -6.88343e-07 -1.27328e-06
-0.000838832 -5.69241e-07 -7.7711e-07
-0.000850399 -4.96553e-07 -3.53009e-07
-0.000860265 -4.5858e-07 4.53606e-08
2.33745e-07 6.13306e-05 -1.69288e-06
1.82549e-07 5.23419e-05 -1.4679e-06
1.373e-07 4.31995e-05 -1.22875e-06
1.02729e-07 3.56402e-05 -1.02528e-06
7.83159e-08 3.01463e-05 -8.73094e-07
-0.000850792 -5.19202e-07 -1.28701e-06
-0.000864952 -4.29405e-07 -8.59097e-07
-0.000877307 -3.70198e-07 -4.65989e-07
-0.000887817 -3.34647e-07 -7.00307e-08
1.95685e-07 4.49734e-05 -8.03849e-07
1.48124e-07 3.75739e-05 -6.61263e-07
1.0805e-07 3.03789e-05 -5.28985e-07
7.91133e-08 2.47702e-05 -4.27882e-07
5.99362e-08 2.10229e-05 -3.60155e-07
-0.000863832 -2.54665e-07 -8.56893e-07
-0.000878719 -2.10957e-07 -5.93751e-07
-0.000891657 -1.80343e-07 -3.53285e-07
-0.000902637 -1.60234e-07 -1.12163e-07
-1.81329e-06 7.95743e-05 -3.85478e-06
-2.88195e-07 4.02955e-05 -2.62291e-06
-0.000632807 -4.12537e-06 1.87049e-05
-5.25336e-07 7.51144e-05 -5.92954e-06
-5.75192e-07 0.000105746 -9.09797e-06
-4.7447e-07 0.000123174 -1.11264e-05
-2.98053e-07 0.000126175 -1.16979e-05
-0.000642083 -2.70146e-06 1.12512e-05
-0.000651354 -1.77747e-06 6.4478e-06
-0.000661084 -1.17553e-06 3.82405e-06
-0.000671029 -8.44052e-07 2.72566e-06
-6.01551e-07 5.11539e-05 -3.63458e-06
-1.0016e-06 6.14077e-05 -4.38359e-06
-1.42882e-06 7.0977e-05 -4.5424e-06
-0.000571227 -4.5431e-06 2.38314e-05
-9.52627e-07 8.50183e-05 -7.4121e-06
-1.0572e-06 0.000116194 -1.11002e-05
-9.3066e-07 0.000134371 -1.35331e-05
-6.71156e-07 0.000137688 -1.42734e-05
-0.000579513 -2.75199e-06 1.5022e-05
-0.000587184 -1.7475e-06 9.1312e-06
-0.000595003 -1.1346e-06 5.70733e-06
-0.000602961 -8.39695e-07 4.01441e-06
-0.000500954 -5.00211e-06 2.79756e-05
-1.44085e-06 9.39121e-05 -8.42062e-06
-1.58435e-06 0.000125283 -1.23785e-05
-1.4181e-06 0.000144026 -1.50449e-05
-1.06283e-06 0.000147649 -1.58904e-05
-0.000508277 -2.82922e-06 1.80004e-05
-0.000514324 -1.77182e-06 1.11049e-05
-0.000520165 -1.18265e-06 6.93028e-06
-0.000526033 -9.61025e-07 4.68362e-06
-0.000422577 -5.25698e-06 2.9687e-05
-1.93433e-06 0.000101721 -8.57246e-06
-2.09835e-06 0.000132911 -1.24721e-05
-1.88768e-06 0.00015201 -1.51637e-05
-1.4393e-06 0.00015591 -1.60655e-05
-0.000428682 -2.80164e-06 1.94461e-05
-0.000432953 -1.75602e-06 1.2049e-05
-0.000436673 -1.23049e-06 7.4415e-06
-0.000440322 -1.10093e-06 4.82814e-06
-2.28844e-06 0.000108238 -7.44573e-06
-2.46185e-06 0.000138817 -1.1125e-05
-2.21172e-06 0.000158049 -1.36415e-05
-1.69635e-06 0.000162206 -1.45646e-05
-1.19538e-07 0.000118142 -1.1094e-05
-9.03444e-08 0.000104074 -1.00049e-05
-1.96724e-08 8.84894e-05 -8.70554e-06
2.59864e-08 7.42599e-05 -7.42369e-06
5.36317e-08 6.26152e-05 -6.31294e-06
-0.000680912 -3.02978e-07 1.16159e-06
-0.000690015 -2.10876e-07 1.32894e-06
-0.000698096 -2.12424e-07 1.34183e-06
-0.000705033 -2.7896e-07 1.20368e-06
-3.58643e-07 0.000129319 -1.35636e-05
-2.74817e-07 0.000114372 -1.22928e-05
-1.42758e-07 9.76179e-05 -1.07465e-05
-5.17927e-08 8.21076e-05 -9.19e-06
7.28925e-09 6.92291e-05 -7.81669e-06
-0.000610916 -1.44281e-07 2.31499e-06
-0.000618376 -1.00479e-07 2.30879e-06
-0.000625051 -1.5336e-07 2.11402e-06
-0.000630802 -2.70923e-07 1.71319e-06
-6.3828e-07 0.000139101 -1.51974e-05
-5.06594e-07 0.000123458 -1.38078e-05
-2.9623e-07 0.000105733 -1.21208e-05
-1.4605e-07 8.91173e-05 -1.03863e-05
-4.48574e-08 7.51458e-05 -8.82855e-06
-0.000532388 1.19722e-08 2.58844e-06
-0.000537943 -5.00881e-08 2.48582e-06
-0.000542947 -2.00962e-07 2.16432e-06
-0.000547251 -4.0878e-07 1.59834e-06
-9.09915e-07 0.00014735 -1.54815e-05
-7.21047e-07 0.000131198 -1.40855e-05
-4.36757e-07 0.000112701 -1.24084e-05
-2.30806e-07 9.51617e-05 -1.06494e-05
-9.0068e-08 8.02446e-05 -9.04435e-06
-0.000444876 8.08099e-08 2.80485e-06
-0.00044845 -9.22674e-08 2.55801e-06
-0.000451725 -3.37461e-07 2.09387e-06
-0.000454539 -6.24446e-07 1.36995e-06
-1.08752e-06 0.000153783 -1.41202e-05
-8.0268e-07 0.000137368 -1.29065e-05
-4.78364e-07 0.000118345 -1.13829e-05
-2.45915e-07 0.000100099 -9.76173e-06
-8.91128e-08 8.44101e-05 -8.26375e-06
-0.000896561 -1.62657e-07 1.58383e-07
-0.000775066 -2.99524e-07 2.48073e-06
-0.000827934 -2.83736e-07 1.60988e-06
-0.000868395 -1.57795e-07 5.20364e-07
8.74232e-08 4.74546e-05 -4.01752e-06
7.3359e-08 4.13468e-05 -3.58938e-06
6.126e-08 3.61975e-05 -3.19365e-06
5.01148e-08 3.13819e-05 -2.79038e-06
3.94826e-08 2.65271e-05 -2.35753e-06
-0.000780865 1.24368e-07 1.97293e-06
-0.000785511 -6.19952e-08 1.59122e-06
-0.000789353 -2.44292e-07 1.29428e-06
-0.000792515 -4.19404e-07 1.12201e-06
9.01006e-08 4.08333e-05 -2.65628e-06
7.33694e-08 3.58086e-05 -2.38944e-06
5.94092e-08 3.1564e-05 -2.14156e-06
4.69571e-08 2.75237e-05 -1.88312e-06
3.55293e-08 2.33624e-05 -1.59885e-06
-0.000834422 7.79727e-08 8.84021e-07
-0.000839713 -6.02777e-08 8.10002e-07
-0.000844123 -1.95267e-07 8.10667e-07
-0.00084778 -3.24358e-07 9.25582e-07
8.35492e-08 3.37699e-05 -1.54201e-06
6.69564e-08 2.98851e-05 -1.39833e-06
5.32809e-08 2.65935e-05 -1.26458e-06
4.11936e-08 2.33751e-05 -1.12092e-06
3.02596e-08 1.99556e-05 -9.5775e-07
-0.000875421 -1.80437e-08 5.44917e-08
-0.00088123 -9.85763e-08 1.43458e-07
-0.000886097 -1.77038e-07 2.9185e-07
-0.000890152 -2.51435e-07 5.3347e-07
7.0122e-08 2.63756e-05 -7.64618e-07
5.58195e-08 2.36718e-05 -7.00293e-07
4.40226e-08 2.13665e-05 -6.40488e-07
3.35125e-08 1.90022e-05 -5.7333e-07
2.3993e-08 1.6359e-05 -4.93589e-07
-0.000903908 9.14095e-09 -3.20928e-07
-0.000910122 -3.54574e-08 -1.64898e-07
-0.000915348 -7.96561e-08 3.51119e-08
-0.000919721 -1.22186e-07 3.04366e-07
5.06252e-08 1.8726e-05 -3.18881e-07
4.10448e-08 1.72297e-05 -2.94924e-07
3.29726e-08 1.59322e-05 -2.73011e-07
2.54633e-08 1.44444e-05 -2.46801e-07
1.84023e-08 1.26034e-05 -2.13906e-07
-0.000911772 5.1756e-08 -4.7133e-07
-0.0009195 3.25206e-08 -3.54836e-07
-0.000926005 1.21738e-08 -2.33695e-07
-0.000931491 -8.33862e-09 -9.06787e-08
-0.000936092 -2.85474e-08 8.87051e-08
2.69957e-08 2.14824e-05 -1.91199e-06
1.6079e-08 1.62458e-05 -1.46042e-06
7.78276e-09 1.08816e-05 -9.8025e-07
2.36959e-09 5.45253e-06 -4.88397e-07
-3.48491e-15 -2.33207e-11 2.0603e-12
-0.000795195 -8.77106e-08 -7.69297e-08
-0.000797344 -1.13165e-07 -1.80354e-07
-0.000798967 -1.38695e-07 -2.91317e-07
-0.00080007 -1.64505e-07 -3.88396e-07
-0.000800651 -1.89357e-07 -4.50038e-07
2.47846e-08 1.8969e-05 -1.29912e-06
1.46207e-08 1.43654e-05 -9.93285e-07
6.96267e-09 9.6279e-06 -6.67031e-07
2.04697e-09 4.82539e-06 -3.32479e-07
5.54369e-14 4.53048e-10 -3.0805e-11
-0.000850836 -1.55827e-07 -5.82555e-07
-0.000853287 -1.56353e-07 -3.77046e-07
-0.000855137 -1.57194e-07 -1.86253e-07
-0.000856391 -1.58578e-07 1.46552e-08
-0.00085705 -1.59453e-07 2.52482e-07
2.13545e-08 1.6263e-05 -7.79317e-07
1.24688e-08 1.23419e-05 -5.96589e-07
5.82859e-09 8.27991e-06 -4.00938e-07
1.63993e-09 4.15103e-06 -1.99993e-07
-3.23179e-14 -3.81741e-10 1.81704e-11
-0.000893493 -1.77284e-07 -7.37356e-07
-0.000896183 -1.50775e-07 -4.07834e-07
-0.000898209 -1.25064e-07 -9.90818e-08
-0.000899579 -1.00204e-07 2.14102e-07
-0.000900294 -7.52935e-08 5.5959e-07
1.73028e-08 1.34029e-05 -4.03322e-07
1.00057e-08 1.02023e-05 -3.08841e-07
4.58733e-09 6.85476e-06 -2.07556e-07
1.22696e-09 3.43877e-06 -1.03572e-07
2.08541e-15 4.75733e-11 -1.41703e-12
-0.000923263 -1.26465e-07 -7.29344e-07
-0.000926146 -1.05501e-07 -3.85505e-07
-0.000928315 -8.52906e-08 -6.66982e-08
-0.000929777 -6.58688e-08 2.47983e-07
-0.000930532 -4.66987e-08 5.82356e-07
1.2767e-08 1.04134e-05 -1.75707e-07
7.36062e-09 7.96462e-06 -1.34283e-07
3.34353e-09 5.36387e-06 -9.01055e-08
8.70428e-10 2.69328e-06 -4.49537e-08
-9.70297e-15 -4.15247e-10 6.86632e-12
-0.000939858 -5.19655e-08 -4.90862e-07
-0.000942883 -4.20526e-08 -2.60493e-07
-0.000945154 -3.24879e-08 -4.57425e-08
-0.000946674 -2.33368e-08 1.66014e-07
-0.000947446 -1.44366e-08 3.89066e-07
-0.000710586 -3.59301e-07 2.32197e-06
7.02711e-08 5.35197e-05 -5.46768e-06
6.30216e-08 4.6403e-05 -4.86393e-06
5.60062e-08 4.04123e-05 -4.30586e-06
4.87156e-08 3.48817e-05 -3.74481e-06
4.08799e-08 2.93941e-05 -3.15235e-06
-0.000715618 1.08996e-07 2.7073e-06
-0.000719537 -1.28926e-07 2.23991e-06
-0.00072274 -3.62656e-07 1.86726e-06
-0.000725343 -5.88762e-07 1.62999e-06
-0.000635349 -5.52478e-07 2.06396e-06
-0.000550502 -7.6604e-07 2.34058e-06
-0.000456491 -1.04865e-06 2.18204e-06
4.29889e-08 5.90225e-05 -6.73285e-06
4.53777e-08 5.0977e-05 -5.97144e-06
4.56698e-08 4.42113e-05 -5.26597e-06
4.39957e-08 3.80258e-05 -4.56269e-06
4.03418e-08 3.19638e-05 -3.82862e-06
-0.000639567 1.62557e-09 3.48923e-06
-0.00064273 -2.69733e-07 2.77616e-06
-0.000645268 -5.36396e-07 2.16161e-06
-0.000647291 -7.95785e-07 1.6849e-06
5.96487e-09 6.3956e-05 -7.5503e-06
2.12575e-08 5.5065e-05 -6.68473e-06
3.14275e-08 4.75922e-05 -5.87895e-06
3.73759e-08 4.08122e-05 -5.07924e-06
3.94177e-08 3.42338e-05 -4.25108e-06
-0.000554095 -1.41587e-07 4.03115e-06
-0.000556372 -4.42415e-07 3.02297e-06
-0.000558123 -7.37939e-07 2.11208e-06
-0.000559448 -1.02731e-06 1.33399e-06
-2.53587e-08 6.81966e-05 -7.69155e-06
1.80386e-09 5.85491e-05 -6.80177e-06
2.08992e-08 5.04416e-05 -5.96992e-06
3.35822e-08 4.3132e-05 -5.14698e-06
4.05165e-08 3.61013e-05 -4.29984e-06
-0.000459266 -2.79341e-07 4.37754e-06
-0.000460636 -5.88509e-07 3.12615e-06
-0.000461592 -8.91181e-07 1.95868e-06
-0.000462223 -1.18857e-06 9.01904e-07
-2.774e-08 7.16635e-05 -6.96927e-06
5.5626e-09 6.13212e-05 -6.18077e-06
2.45757e-08 5.26706e-05 -5.43259e-06
3.71247e-08 4.49162e-05 -4.685e-06
4.38491e-08 3.7518e-05 -3.9126e-06
2.77768e-08 2.37551e-05 -2.54836e-06
1.67468e-08 1.79468e-05 -1.94599e-06
8.27136e-09 1.20169e-05 -1.30613e-06
2.62514e-09 6.02115e-06 -6.50657e-07
-2.09985e-14 -1.18289e-10 1.26005e-11
-0.000727607 -2.09763e-08 -8.71914e-08
-0.000729407 -7.17447e-08 -3.43145e-07
-0.00073076 -1.21917e-07 -5.94694e-07
-0.000731674 -1.71733e-07 -8.2636e-07
-0.000732148 -2.19944e-07 -1.02429e-06
2.69053e-08 2.57883e-05 -3.08741e-06
1.6416e-08 1.94679e-05 -2.35785e-06
8.26959e-09 1.30322e-05 -1.58277e-06
2.7264e-09 6.52969e-06 -7.88366e-07
-5.7795e-14 -2.99874e-10 3.56689e-11
-0.000649121 7.24877e-08 2.00652e-07
-0.000650557 -3.01927e-09 -3.15119e-07
-0.000651627 -7.63491e-08 -8.15715e-07
-0.000652341 -1.4853e-07 -1.29342e-06
-0.0006527 -2.1919e-07 -1.74397e-06
2.48017e-08 2.75807e-05 -3.41535e-06