# vtk DataFile Version 3.0
vtk output
ASCII
DATASET POLYDATA
POINTS 12120 float
0.00761948 0.401876 -0.00991948
0.00856711 0.420888 -0.0156891
0.0184069 0.432101 -0.0142245
0.00954332 0.439825 -0.0216094
0.019575 0.450971 -0.0206761
0.0105062 0.458739 -0.0276176
0.0114338 0.477654 -0.0336962
0.0123113 0.496697 -0.0398046
0.0207404 0.469793 -0.0274704
0.0218525 0.488682 -0.0343181
0.022878 0.507621 -0.0412899
0.0283095 0.443424 -0.0130646
0.0296613 0.462308 -0.0201943
0.0310189 0.481077 -0.0276557
0.0323149 0.499916 -0.0354031
0.0384941 0.454777 -0.0127754
0.0400614 0.473484 -0.0207769
0.048784 0.466159 -0.0128555
0.0593749 0.477394 -0.0143422
0.0786941 0.481366 -0.00868407
0.0415827 0.49216 -0.0291401
0.0505074 0.484721 -0.0216607
0.0699921 0.488678 -0.0164086
0.0894749 0.492511 -0.0117745
0.0612595 0.495797 -0.0241272
0.109167 0.495597 -0.00834709
0.0521633 0.503267 -0.0310091
0.0719532 0.506852 -0.0271386
0.0808386 0.499499 -0.0197824
0.100445 0.502913 -0.0162639
0.0916109 0.510365 -0.0236954
0.120218 0.505595 -0.0137407
0.139825 0.508037 -0.0119676
0.159396 0.509829 -0.01091
0.178938 0.51126 -0.0102901
0.0131331 0.515954 -0.046087
0.0138597 0.535317 -0.052304
0.0144608 0.554916 -0.0582802
0.0149314 0.57477 -0.0640513
0.0152679 0.594831 -0.0693718
0.0154115 0.615102 -0.0742745
0.0154342 0.635622 -0.0785237
0.0154109 0.656401 -0.0820068
0.16279 0.588601 -0.0922811
0.0835774 0.604549 -0.09581
0.0942973 0.595967 -0.0914505
0.0729326 0.614346 -0.0988029
0.0921299 0.613618 -0.104976
0.0325143 0.656039 -0.0957679
0.0622504 0.624151 -0.100485
0.0810828 0.622998 -0.10827
0.0890574 0.631971 -0.117757
0.100253 0.621945 -0.114578
0.0703223 0.633438 -0.10985
0.0418614 0.645136 -0.099048
0.0519974 0.634628 -0.10046
0.059559 0.64386 -0.110148
0.0777119 0.642163 -0.119883
0.0965481 0.640333 -0.127667
0.0396643 0.665704 -0.105678
0.0494595 0.654867 -0.108729
0.0668644 0.653145 -0.120125
0.0736043 0.662134 -0.130344
0.085072 0.651198 -0.129764
0.0920241 0.659885 -0.139707
0.0562052 0.664083 -0.118888
0.0990138 0.668994 -0.149766
0.102915 0.604286 -0.100551
0.113784 0.595873 -0.0951846
0.133159 0.596002 -0.0979866
0.152499 0.596337 -0.0999254
0.171821 0.59665 -0.101352
0.122397 0.604074 -0.104327
0.141808 0.60381 -0.107103
0.161231 0.603981 -0.109088
0.111465 0.612913 -0.110001
0.13096 0.612453 -0.113648
0.150466 0.612156 -0.116206
0.169938 0.612075 -0.118222
0.103995 0.649444 -0.13754
0.108155 0.630742 -0.124179
0.119709 0.621139 -0.119434
0.127755 0.629639 -0.128804
0.139207 0.620211 -0.123075
0.147532 0.628853 -0.132119
0.158895 0.619912 -0.125482
0.167382 0.628293 -0.134564
0.178473 0.619381 -0.127643
0.115876 0.638995 -0.13391
0.13568 0.637727 -0.138244
0.155756 0.636865 -0.141321
0.175675 0.635827 -0.143855
0.164022 0.645358 -0.150462
0.111275 0.658049 -0.147297
0.123652 0.647614 -0.14341
0.131363 0.656377 -0.152645
0.143734 0.64632 -0.147506
0.151875 0.655089 -0.156452
0.172272 0.653785 -0.159455
0.118832 0.667106 -0.156755
0.139328 0.66536 -0.161794
0.160078 0.664033 -0.165447
0.033496 0.518732 -0.0432689
0.0430163 0.510721 -0.0377965
0.062976 0.513907 -0.0343732
0.0536549 0.521679 -0.0407101
0.0827895 0.517275 -0.031531
0.073643 0.524696 -0.0384212
0.0238009 0.526673 -0.0484123
0.024508 0.545929 -0.0555759
0.0250028 0.565406 -0.0625575
0.0252575 0.585119 -0.0692966
0.0344561 0.537571 -0.0513974
0.0442154 0.529337 -0.0467582
0.0934977 0.52764 -0.0366185
0.0548118 0.540014 -0.0508921
0.0643644 0.531934 -0.0451503
0.084331 0.534726 -0.0438942
0.0748565 0.542299 -0.0502744
0.0351131 0.556648 -0.0596249
0.0450595 0.548019 -0.0559143
0.0947921 0.544753 -0.049989
0.0652896 0.550008 -0.0562647
0.0852921 0.552103 -0.0566629
0.0454904 0.566897 -0.0650613
0.0555003 0.558416 -0.0610871
0.0755572 0.560029 -0.0624194
0.0954338 0.561762 -0.0637305
0.0656519 0.568209 -0.0675279
0.0855776 0.569489 -0.0696919
0.0354152 0.57594 -0.0676793
0.0454364 0.585932 -0.0741759
0.0556335 0.577048 -0.0713635
0.0653398 0.586552 -0.0787824
0.075529 0.577905 -0.0746706
0.0850669 0.587025 -0.0827514
0.0952862 0.578857 -0.0775903
0.111363 0.513236 -0.0213724
0.102469 0.520452 -0.0291141
0.131037 0.515612 -0.0198024
0.150543 0.517702 -0.0187218
0.122198 0.522856 -0.0275204
0.141695 0.525036 -0.0265642
0.161096 0.526747 -0.0260463
0.17002 0.519333 -0.0181538
0.104059 0.537551 -0.0427158
0.104648 0.587603 -0.0862204
0.113198 0.530345 -0.0352029
0.132777 0.532368 -0.0345172
0.152163 0.534247 -0.0340889
0.123727 0.539547 -0.0422473
0.143151 0.541385 -0.0419384
0.162424 0.542901 -0.0419632
0.171476 0.535811 -0.0339202
0.143532 0.588216 -0.0909455
0.105067 0.55432 -0.0569225
0.105334 0.571011 -0.0714667
0.114474 0.547061 -0.0496838
0.124647 0.55596 -0.057461
0.133989 0.548648 -0.0498851
0.144006 0.557324 -0.0578675
0.153291 0.550225 -0.0500686
0.163218 0.558615 -0.058377
0.172499 0.551559 -0.0503583
0.115097 0.563555 -0.0645864
0.12487 0.572103 -0.0730104
0.134557 0.564631 -0.0656777
0.144188 0.572969 -0.0742048
0.153803 0.565837 -0.066459
0.163388 0.574005 -0.075086
0.17298 0.566859 -0.0672005
0.114893 0.579969 -0.079781
0.124165 0.588008 -0.0888365
0.134328 0.580418 -0.0817968
0.153569 0.581209 -0.0830957
0.172784 0.581955 -0.0842642
0.0251861 0.605039 -0.0758226
0.0248224 0.625253 -0.0816556
0.0242349 0.645772 -0.0867539
0.0234428 0.666561 -0.0910117
0.035331 0.595515 -0.0755546
0.0551401 0.595913 -0.0815083
0.0746988 0.595959 -0.0869077
0.0347949 0.615339 -0.0830435
0.044774 0.605232 -0.0831383
0.0539116 0.615019 -0.0913129
0.0641971 0.605098 -0.0899398
0.0338705 0.635523 -0.0897829
0.0435941 0.624984 -0.0914458
0.331946 0.662445 -0.185534
0.292158 0.664695 -0.183404
0.312113 0.663404 -0.184581
0.251679 0.667606 -0.180863
0.272 0.666061 -0.182224
0.30282 0.654327 -0.176456
0.322586 0.653298 -0.177623
0.282925 0.655695 -0.175285
0.262789 0.657012 -0.174133
0.342393 0.652683 -0.178604
0.37177 0.660777 -0.187445
0.391638 0.660206 -0.188144
0.411378 0.659771 -0.188689
0.431116 0.659252 -0.189129
0.45083 0.659241 -0.189372
0.470554 0.659356 -0.189447
0.490265 0.659339 -0.189448
0.351864 0.662077 -0.186622
0.480463 0.649802 -0.181547
0.500082 0.649773 -0.181572
0.382027 0.650893 -0.179976
0.401772 0.650472 -0.18052
0.421443 0.649973 -0.180976
0.441128 0.649576 -0.181353
0.460799 0.649758 -0.18153
0.362307 0.651829 -0.179419
0.431486 0.640698 -0.173196
0.451082 0.640701 -0.173493
0.47068 0.640844 -0.173707
0.49027 0.640919 -0.173913
0.182043 0.588801 -0.0934837
0.258509 0.587348 -0.0972575
0.201137 0.588674 -0.0946685
0.220233 0.588798 -0.0956432
0.239398 0.588258 -0.0965559
0.277752 0.586782 -0.0981768
0.297031 0.586414 -0.0991992
0.316264 0.585881 -0.100076
0.335518 0.585233 -0.100759
0.326067 0.579381 -0.0916016
0.180634 0.60384 -0.110773
0.1807 0.662641 -0.168488
0.191059 0.596531 -0.102679
0.210263 0.596317 -0.103777
0.229449 0.596045 -0.104727
0.248691 0.595322 -0.105668
0.199971 0.603401 -0.11193
0.219269 0.603177 -0.11291
0.238567 0.602564 -0.114
0.25783 0.601498 -0.114865
0.184133 0.644287 -0.153085
0.189471 0.611678 -0.119892
0.20895 0.611123 -0.121049
0.228367 0.610569 -0.121936
0.247721 0.609666 -0.123066
0.23736 0.617284 -0.131078
0.256781 0.616071 -0.132172
0.187157 0.627496 -0.136693
0.198205 0.618671 -0.12922
0.207082 0.626635 -0.138002
0.217854 0.618135 -0.130131
0.226846 0.625837 -0.138906
0.246416 0.624731 -0.140168
0.195791 0.634886 -0.145904
0.204551 0.643166 -0.154666
0.21585 0.633927 -0.147023
0.235706 0.632724 -0.14805
0.255363 0.631446 -0.149251
0.224747 0.64206 -0.155664
0.244631 0.640669 -0.156913
0.192864 0.652695 -0.16188
0.213419 0.651421 -0.163144
0.233688 0.650017 -0.164297
0.253653 0.648583 -0.165634
0.201691 0.661356 -0.170483
0.242643 0.658572 -0.17285
0.222372 0.66003 -0.171595
0.26787 0.594339 -0.10648
0.287161 0.593728 -0.107418
0.306496 0.59327 -0.108535
0.325722 0.592558 -0.109348
0.296488 0.599913 -0.116679
0.315818 0.599299 -0.117738
0.335141 0.598606 -0.118515
0.277141 0.600663 -0.115722
0.267054 0.608509 -0.123998
0.286471 0.607687 -0.124931
0.325202 0.606138 -0.126955
0.305895 0.606942 -0.126021
0.276273 0.6151 -0.133122
0.295766 0.614121 -0.134115
0.3152 0.6133 -0.13525
0.334588 0.612606 -0.136173
0.265938 0.623487 -0.141255
0.285563 0.622487 -0.142213
0.305106 0.621478 -0.143275
0.324506 0.62057 -0.144374
0.275104 0.630339 -0.150263
0.294767 0.62915 -0.151338
0.31434 0.628094 -0.152476
0.333846 0.627391 -0.153513
0.264478 0.639263 -0.158145
0.284346 0.638019 -0.159206
0.304073 0.637213 -0.160253
0.323632 0.636172 -0.16142
0.273683 0.647293 -0.166837
0.293559 0.645983 -0.168022
0.3133 0.644798 -0.169216
0.332961 0.644046 -0.17037
0.1805 0.528246 -0.025954
0.181685 0.544297 -0.0422491
0.182429 0.559699 -0.0590505
0.182588 0.574662 -0.0762083
0.189481 0.520682 -0.0183627
0.198572 0.512501 -0.0109073
0.21812 0.513401 -0.0113151
0.237536 0.514034 -0.0116875
0.256992 0.514307 -0.0122223
0.209022 0.521618 -0.0187909
0.228368 0.522212 -0.0192999
0.247722 0.522611 -0.0197838
0.190768 0.536966 -0.0343708
0.199915 0.529265 -0.0265353
0.219245 0.530029 -0.0270211
0.238515 0.530452 -0.0275878
0.257832 0.53057 -0.0282436
0.210099 0.53777 -0.0349562
0.229311 0.538199 -0.0355949
0.248545 0.538417 -0.0362019
0.191695 0.552518 -0.0509048
0.200937 0.54509 -0.0429164
0.220115 0.545726 -0.0435021
0.23929 0.545904 -0.044238
0.258485 0.545854 -0.0449914
0.210864 0.553146 -0.0517184
0.229978 0.553441 -0.0524275
0.249136 0.553482 -0.0531755
0.192126 0.567585 -0.0679016
0.19199 0.582447 -0.0852516
0.20155 0.560298 -0.0598226
0.220647 0.560763 -0.0605038
0.239782 0.560769 -0.0613679
0.258893 0.560462 -0.0621978
0.211216 0.567998 -0.0689236
0.230278 0.568146 -0.0696603
0.249407 0.567966 -0.0705272
0.201678 0.574937 -0.0770977
0.258964 0.574499 -0.0797038
0.220713 0.575106 -0.0779634
0.239839 0.574918 -0.0788968
0.211117 0.58249 -0.0863174
0.230217 0.582497 -0.0870988
0.249347 0.582092 -0.0880258
0.26715 0.522787 -0.0204419
0.276522 0.514651 -0.0127708
0.29596 0.515156 -0.0132337
0.315393 0.515221 -0.0138221
0.334844 0.51526 -0.0142929
[...]
POINT_DATA 12120
VECTORS alpha float
-0.000116551 -0.00232942 0.000716358
-0.000108774 -0.0020752 0.000658177
-0.00026943 -5.01759e-05 -0.000129561
-9.59219e-05 -0.00179681 0.000583598
-0.000299857 -5.41108e-05 -0.000127595
-7.85024e-05 -0.00149852 0.000492886
-5.8618e-05 -0.00118245 0.000390036
-3.8431e-05 -0.000851705 0.000278882
-0.000327394 -5.59445e-05 -0.000116622
-0.000351033 -5.49608e-05 -9.83042e-05
-0.000369776 -5.08321e-05 -7.21519e-05
-7.97078e-05 -0.00108852 0.000409824
-6.8999e-05 -0.000920447 0.000364743
-5.41375e-05 -0.000742576 0.000305697
-3.72054e-05 -0.000557302 0.000235906
-0.000463084 -9.30496e-05 -0.000191606
-0.000506366 -9.61127e-05 -0.000175976
-4.53373e-05 -0.000480453 0.000223003
-0.000585065 -0.000112633 -0.00018286
-0.000622904 -0.000114874 -0.000163364
-0.000543741 -9.52631e-05 -0.000146891
-3.77868e-05 -0.000402051 0.000199112
-2.71019e-05 -0.000244776 0.000140506
-1.81173e-05 -0.000149866 9.54382e-05
-0.000627335 -0.000112428 -0.00015177
-1.09642e-05 -8.88283e-05 6.17137e-05
-2.78185e-05 -0.000320349 0.000167571
-2.10146e-05 -0.000206076 0.00012714
-0.000665748 -0.000115972 -0.000133628
-0.000683385 -0.000107609 -0.000107297
-1.46353e-05 -0.000131212 9.1276e-05
-0.000692503 -9.02908e-05 -7.58219e-05
-0.000701512 -7.45218e-05 -4.93446e-05
-0.000713 -5.65739e-05 -2.82763e-05
-0.000729188 -2.89606e-05 -7.2701e-06
-2.05026e-05 -0.000507445 0.000163639
-5.0453e-06 -0.000150462 4.7277e-05
5.65436e-06 0.000215667 -6.46964e-05
1.11808e-05 0.00058797 -0.000165052
1.11365e-05 0.000961948 -0.000246153
5.04377e-06 0.00133204 -0.00029996
-5.12579e-06 0.00169109 -0.000320926
-1.16246e-05 0.00203074 -0.00030536
-0.000760737 -1.77851e-05 5.42473e-05
-0.000684739 7.45153e-06 0.000181316
2.51599e-06 -2.98447e-05 2.31992e-05
-6.51843e-06 5.30975e-05 -3.27573e-05
1.02329e-06 -7.04501e-06 5.11651e-06
-7.86278e-05 0.00108797 -0.000283349
-0.000587135 1.99726e-05 0.000256921
-0.00064187 2.56064e-05 0.00023312
-3.29085e-06 1.75146e-05 -1.14889e-05
-0.000676889 2.44087e-05 0.000191157
-1.63138e-05 0.000102513 -5.70963e-05
-0.000437878 1.91225e-05 0.000286895
-3.70832e-05 0.000324421 -0.00014256
-0.000527216 3.39978e-05 0.000299519
-0.000588751 4.13639e-05 0.000271995
-0.000632657 4.34218e-05 0.000223134
-0.00037161 2.43208e-05 0.000311082
-5.81706e-05 0.000424368 -0.000159165
-2.91912e-05 0.000154117 -7.43787e-05
-0.00052565 5.03601e-05 0.000298869
-9.71382e-06 4.41085e-05 -2.51454e-05
-0.000578727 5.36226e-05 0.000247071
-0.000457233 4.13143e-05 0.000328068
-9.32444e-06 3.66777e-05 -1.98742e-05
-0.000710477 4.73944e-06 0.000148708
2.15928e-06 -2.13552e-05 1.90162e-05
-5.3361e-07 4.95318e-06 -4.87614e-06
-3.4268e-06 3.25707e-05 -3.39523e-05
-5.02977e-06 5.30214e-05 -5.73311e-05
-0.000725897 -4.76247e-07 0.000110944
-0.000736731 -2.69569e-07 8.13962e-05
-0.000746999 -3.17431e-06 6.49064e-05
1.41239e-06 -8.87802e-06 7.42144e-06
-2.41242e-06 1.48738e-05 -1.37958e-05
-6.69212e-06 4.33659e-05 -4.2906e-05
-9.35847e-06 6.54178e-05 -6.71893e-05
-4.73852e-06 1.98245e-05 -1.29243e-05
-9.7986e-07 4.72467e-06 -3.5487e-06
-0.00069973 1.82253e-05 0.000141204
-5.39114e-06 2.57777e-05 -2.16697e-05
-0.0007156 1.75818e-05 0.000101471
-1.08829e-05 5.53873e-05 -5.0002e-05
-0.000727429 1.44011e-05 7.62088e-05
-1.40985e-05 7.95276e-05 -7.48131e-05
-0.000741938 3.52191e-06 5.69378e-05
-0.000664821 3.4238e-05 0.000169838
-0.000686222 3.0966e-05 0.000121222
-0.00069991 2.85185e-05 8.87444e-05
-0.000715091 1.71962e-05 6.35047e-05
-1.91564e-05 9.61937e-05 -7.94288e-05
-0.000619879 4.46936e-05 0.000190601
-9.1112e-06 3.82043e-05 -2.77798e-05
-0.000646419 3.93318e-05 0.000137272
-1.54924e-05 6.93719e-05 -5.46434e-05
-0.000661828 3.70019e-05 9.86612e-05
-0.000676889 2.53998e-05 6.89528e-05
-1.31171e-05 5.18165e-05 -3.15196e-05
-1.98691e-05 8.44944e-05 -5.61738e-05
-2.3844e-05 0.000114169 -7.98029e-05
-2.04804e-05 -0.000364199 0.000157013
-0.000573558 -8.86549e-05 -0.000104946
-0.000660764 -0.00010445 -0.000108736
-1.69663e-05 -0.000235244 0.000128727
-0.000698945 -0.000109749 -9.39828e-05
-1.38583e-05 -0.000165678 0.000108424
-0.00038262 -4.44942e-05 -3.75281e-05
-0.00038751 -3.64255e-05 1.95774e-06
-0.000383798 -2.70393e-05 4.41754e-05
-0.000370627 -1.71567e-05 8.69756e-05
-6.88762e-06 -0.000165282 7.18813e-05
-0.000593739 -7.7413e-05 -5.32203e-05
-1.01885e-05 -0.000111751 8.38365e-05
-7.45762e-06 -0.000147883 8.32081e-05
-0.000683577 -9.10544e-05 -5.36904e-05
-0.000722158 -9.55841e-05 -4.4684e-05
-6.99051e-06 -0.000124281 8.494e-05
9.29963e-07 3.84264e-05 -1.65318e-05
-0.00060196 -6.18267e-05 5.15526e-06
-5.54391e-06 -9.1993e-05 7.263e-05
-0.000693394 -7.26855e-05 7.69187e-06
-0.000733055 -7.64844e-05 9.88451e-06
-0.000597237 -4.35154e-05 6.79564e-05
-1.30131e-06 -5.82325e-05 3.29804e-05
-1.66273e-06 -8.22271e-05 5.72407e-05
-1.40207e-06 -7.18232e-05 5.81821e-05
-0.000689365 -5.007e-05 7.33466e-05
-0.00073104 -5.22208e-05 6.78549e-05
1.09388e-06 0.000246527 -0.000101891
-0.00057794 -2.38619e-05 0.00013165
-3.12076e-07 3.36393e-05 -1.87238e-05
-0.000670022 -2.53451e-05 0.000139247
8.46189e-07 -3.89666e-05 2.69241e-05
-0.000715239 -2.49945e-05 0.000126209
1.45781e-06 -5.11722e-05 4.13821e-05
-8.92274e-06 -7.804e-05 5.9927e-05
-0.000715135 -0.000103531 -7.3356e-05
-4.53229e-06 -4.17296e-05 3.45685e-05
-1.93301e-06 -1.92789e-05 1.66787e-05
-0.000721442 -8.8832e-05 -4.99203e-05
-0.000728757 -7.46824e-05 -2.86173e-05
-0.000739062 -5.83467e-05 -1.246e-05
-6.81307e-07 -7.4581e-06 6.66816e-06
-0.000737295 -9.30613e-05 -3.21974e-05
-0.000735817 -2.85396e-05 0.000108659
-6.24745e-06 -6.67422e-05 5.60326e-05
-2.85308e-06 -3.20767e-05 2.90729e-05
-6.66043e-07 -8.13688e-06 7.70594e-06
-0.000741839 -8.20119e-05 -1.81931e-05
-0.000747601 -6.9721e-05 -5.37333e-06
-0.000756961 -5.54058e-05 5.26477e-06
4.35435e-07 5.81349e-06 -5.70297e-06
-0.000751946 -2.52872e-05 6.93361e-05
-0.000747957 -7.70393e-05 1.3159e-05
-0.000747323 -5.59051e-05 6.05433e-05
-3.44899e-06 -5.54848e-05 4.96335e-05
-0.000752546 -6.93268e-05 1.62934e-05
-1.31135e-06 -2.26883e-05 2.2016e-05
-0.000757568 -5.8794e-05 1.9265e-05
1.20066e-07 2.33402e-06 -2.36725e-06
-0.000766516 -4.85284e-05 2.31076e-05
8.55093e-07 1.8012e-05 -1.89785e-05
-8.18158e-07 -4.42088e-05 4.08569e-05
-0.000753229 -5.25127e-05 4.99741e-05
-1.94899e-07 -1.34416e-05 1.36132e-05
-0.000758599 -4.46766e-05 4.31518e-05
1.35173e-07 1.24203e-05 -1.31369e-05
-0.000767259 -3.85563e-05 3.91696e-05
2.93588e-07 2.95876e-05 -3.25468e-05
1.10476e-06 -3.28076e-05 3.04917e-05
-0.000745142 -3.0293e-05 8.61433e-05
1.65952e-07 -4.36167e-06 4.47031e-06
-8.414e-07 2.22032e-05 -2.38551e-05
-1.40956e-06 4.08046e-05 -4.55396e-05
-0.000347682 -7.96463e-06 0.000128665
-0.000316128 -6.34969e-07 0.00016329
-0.000277367 3.84003e-06 0.000189023
-0.000233751 5.4444e-06 0.000203776
-7.35828e-06 0.000457898 -0.000177713
-5.58189e-06 0.000127972 -6.80856e-05
-3.96057e-07 5.90421e-06 -3.92719e-06
-2.46449e-05 0.000670498 -0.000237236
-0.00054399 -5.71925e-06 0.000194327
-1.76519e-05 0.000224891 -0.000110639
-0.000635414 -1.79485e-06 0.00020425
-4.90696e-05 0.000881187 -0.000273682
-0.000496905 9.53998e-06 0.000246967
-0.000638294 1.796e-05 2.83764e-05
-0.000633933 4.40417e-05 3.40696e-05
-0.000637237 2.23839e-05 3.43574e-05
-0.000631953 3.80346e-05 4.17115e-05
-0.000632812 4.41024e-05 3.80175e-05
-4.28588e-06 6.63384e-05 -5.33894e-05
-3.16948e-06 5.62844e-05 -4.58252e-05
-5.84788e-06 7.86277e-05 -6.28039e-05
-8.25225e-06 9.37442e-05 -7.39983e-05
-2.31125e-06 4.85688e-05 -3.95829e-05
-0.000640496 1.7097e-05 2.6329e-05
-0.000641342 1.23033e-05 1.94349e-05
-0.000642756 1.58286e-05 1.58819e-05
-0.000644021 1.5778e-05 7.76893e-06
-0.000645182 -6.08434e-06 3.69265e-06
-0.000645409 -1.60913e-06 1.20022e-06
-0.000645423 2.76884e-06 -1.09288e-06
-0.000638941 1.841e-05 3.76865e-05
-4.44251e-08 6.18012e-06 -5.12242e-06
1.8163e-10 -4.87562e-08 3.98899e-08
-9.19125e-07 3.63629e-05 -2.9925e-05
-6.5606e-07 3.04138e-05 -2.52705e-05
-4.41481e-07 2.45623e-05 -2.04481e-05
-2.65906e-07 1.8561e-05 -1.54567e-05
-1.32455e-07 1.23581e-05 -1.03092e-05
-1.35078e-06 4.22464e-05 -3.45327e-05
-0.000717556 1.62215e-05 7.20182e-06
-0.00071886 -6.59795e-06 7.97653e-06
-0.000719333 -3.99608e-06 7.67668e-06
-0.000719503 -1.54222e-06 7.52721e-06
-0.000772518 -1.09074e-05 4.23217e-05
-0.000830684 3.68119e-05 3.28469e-05
-0.000786031 8.68139e-07 4.14485e-05
-0.000801661 8.34326e-06 4.29103e-05
-0.000816836 2.3951e-05 3.43782e-05
-0.000844953 2.82591e-05 4.48477e-05
-0.000857551 1.79203e-05 4.73371e-05
-0.000865418 2.54177e-05 3.15584e-05
-0.000873388 2.51039e-05 3.09183e-05
-2.35476e-07 1.82927e-05 -2.33233e-05
-0.000758696 -5.37645e-06 4.45909e-05
-2.40453e-05 0.000131231 -9.4275e-05
-5.03923e-06 6.29638e-05 -6.96921e-05
-4.29585e-06 6.3539e-05 -7.17115e-05
-3.48315e-06 5.77608e-05 -6.6705e-05
-2.42055e-06 4.92401e-05 -5.81429e-05
-0.000771194 8.6843e-06 3.77487e-05
-0.000784522 1.83501e-05 3.97908e-05
-0.000797975 2.53904e-05 4.08255e-05
-0.000810223 4.05041e-05 3.52359e-05
-1.9465e-05 0.000111071 -9.42068e-05
-9.34232e-06 7.67448e-05 -8.07819e-05
-7.70294e-06 7.74198e-05 -8.34065e-05
-5.99953e-06 7.09051e-05 -7.81339e-05
-4.46408e-06 6.10977e-05 -6.86494e-05
-0.000771711 2.90975e-05 4.17124e-05
-0.000781628 3.93161e-05 3.99992e-05
-1.431e-05 9.25353e-05 -8.91728e-05
-0.000752662 1.2447e-05 4.34822e-05
-1.17603e-05 9.33974e-05 -9.25577e-05
-0.000761604 2.54966e-05 3.76114e-05
-9.0396e-06 8.60073e-05 -8.73294e-05
-6.76543e-06 7.48575e-05 -7.71316e-05
-0.00072448 1.47005e-05 4.61442e-05
-1.62054e-05 0.000113061 -9.80825e-05
-0.000728851 3.03455e-05 3.80072e-05
-0.000734837 3.63558e-05 3.98277e-05
-0.000743096 3.95936e-05 4.21348e-05
-1.2331e-05 0.000104757 -9.34021e-05
-9.15577e-06 9.19758e-05 -8.30071e-05
-0.000684127 1.96312e-05 4.97626e-05
-0.000685002 3.28544e-05 3.94678e-05
-0.000687116 3.9303e-05 3.90267e-05
-0.000692874 3.93132e-05 4.2764e-05
-2.01499e-05 0.000134503 -9.93769e-05
-1.13373e-05 0.000110592 -8.55735e-05
-1.54368e-05 0.000125316 -9.54378e-05
-1.71758e-06 4.03105e-05 -4.86076e-05
-1.31354e-06 3.3083e-05 -4.03205e-05
-1.00418e-06 2.76393e-05 -3.41999e-05
-7.0816e-07 2.34666e-05 -2.97512e-05
-0.000833558 2.72926e-05 4.53717e-05
-0.000841482 2.21963e-05 3.58742e-05
-0.000848623 2.58674e-05 3.24322e-05
-0.000822404 4.03454e-05 3.81612e-05
-3.1431e-06 5.04643e-05 -5.80212e-05
-2.26104e-06 4.16929e-05 -4.84086e-05
-1.25953e-06 2.94735e-05 -3.54934e-05
-1.76225e-06 3.48508e-05 -4.10059e-05
-0.000791433 4.56569e-05 3.87498e-05
-0.000800971 3.75218e-05 4.05205e-05
-0.000808189 2.32283e-05 4.11156e-05
-0.000813759 2.40482e-05 3.67343e-05
-4.78167e-06 6.22722e-05 -6.5774e-05
-3.3622e-06 5.17319e-05 -5.51752e-05
-2.57217e-06 4.33047e-05 -4.67927e-05
-1.86629e-06 3.6609e-05 -4.03276e-05
-0.000749142 4.82037e-05 3.9814e-05
-0.00075624 4.44618e-05 3.82942e-05
-0.000762871 2.10706e-05 4.20831e-05
-0.00076674 2.0694e-05 3.88152e-05
-6.46913e-06 7.71359e-05 -7.13413e-05
-4.52994e-06 6.44668e-05 -6.02061e-05
-3.39158e-06 5.37034e-05 -5.10763e-05
-2.49896e-06 4.5475e-05 -4.38994e-05
-0.000696049 4.78047e-05 3.92297e-05
-0.000700527 4.52249e-05 3.75318e-05
-0.000705907 1.96444e-05 4.11105e-05
-0.000708355 1.70424e-05 3.92697e-05
-0.000753677 -3.52866e-05 5.24438e-06
-0.000770721 -3.63132e-05 1.69936e-05
-0.000779563 -3.318e-05 2.85036e-05
-0.000779969 -2.82492e-05 3.91748e-05
-2.60965e-07 -3.25587e-06 2.95606e-06
-0.000744776 -2.69474e-05 7.79373e-06
-0.000761302 -2.50402e-05 1.61131e-05
-0.000778996 -1.46402e-05 2.17223e-05
-0.000793887 -9.57304e-06 2.38124e-05
-2.30054e-07 -3.51142e-06 3.22908e-06
-3.21045e-07 -5.50001e-06 5.18296e-06
-3.85887e-07 -7.32576e-06 7.05911e-06
7.58836e-07 1.15063e-05 -1.14851e-05
-0.000769812 -2.65267e-05 1.63529e-05
-0.000787464 -2.10526e-05 2.39134e-05
-0.000805577 -8.5773e-06 2.80328e-05
-0.000821144 -3.98128e-06 3.07437e-05
6.30879e-07 1.1631e-05 -1.17555e-05
4.30151e-07 8.86847e-06 -9.17494e-06
2.43883e-07 5.5309e-06 -5.85903e-06
1.05241e-06 2.49367e-05 -2.66876e-05
-0.000786608 -2.23026e-05 2.40247e-05
-0.000804569 -1.45683e-05 3.10336e-05
-0.000822825 -2.67145e-06 3.31679e-05
-0.00083857 2.637e-06 3.63691e-05
9.05875e-07 2.52742e-05 -2.74487e-05
7.12754e-07 2.18048e-05 -2.41871e-05
5.14337e-07 1.7035e-05 -1.93927e-05
4.06077e-07 3.75993e-05 -4.2001e-05
-1.26707e-06 4.98299e-05 -5.65314e-05
-0.000794842 -1.7499e-05 3.23535e-05
-0.000812634 -6.44213e-06 3.61431e-05
-0.000830576 4.13666e-06 3.66398e-05
-0.00084631 1.00117e-05 4.06565e-05
4.13031e-07 3.80083e-05 -4.31975e-05
3.82228e-07 3.39024e-05 -3.92549e-05
3.18208e-07 2.77639e-05 -3.30172e-05
-0.000794216 -1.13278e-05 3.95362e-05
-0.000842949 1.68034e-05 4.32708e-05
-0.000811401 9.72376e-07 3.8484e-05
-0.000828109 8.77056e-06 3.68328e-05
-9.34759e-07 5.0287e-05 -5.81289e-05
-6.35079e-07 4.55462e-05 -5.36395e-05
-4.18036e-07 3.81719e-05 -4.60637e-05
-3.68051e-07 -8.06819e-06 7.90668e-06
-0.00080583 -1.42023e-05 2.54768e-05
-0.000817136 -1.43193e-05 2.42101e-05
-0.000826305 -3.19426e-07 2.25208e-05
-0.000833778 -1.48793e-06 1.77313e-05
-2.78807e-07 -7.61519e-06 7.49882e-06
-2.05944e-07 -6.2006e-06 6.19251e-06
-1.31636e-07 -4.33875e-06 4.4067e-06
1.13138e-07 3.00942e-06 -3.24802e-06
-0.000834245 -8.95625e-06 3.33886e-05
-0.000846705 -8.10467e-06 3.30073e-05
-0.000855909 4.20254e-06 2.8805e-05
-0.000863909 4.43569e-07 2.56918e-05
5.24571e-08 1.76834e-06 -1.91895e-06
4.3668e-08 1.62007e-06 -1.78577e-06
5.19393e-08 2.12283e-06 -2.38479e-06
-2.46116e-07 2.12065e-05 -2.6572e-05
3.20482e-07 1.28438e-05 -1.49211e-05
-0.000852436 -1.27281e-06 3.94092e-05
-0.000865631 -3.16629e-07 3.82832e-05
-0.000874667 1.00292e-05 3.29931e-05
-0.000883018 3.17924e-06 3.2352e-05
1.90327e-07 1.00662e-05 -1.17536e-05
1.47075e-07 8.49544e-06 -1.00904e-05
1.21072e-07 7.7574e-06 -9.40916e-06
1.86221e-07 2.19634e-05 -2.66944e-05
-0.000860555 8.13016e-06 4.32525e-05
-0.000874225 8.99839e-06 4.12829e-05
-0.00088319 1.65376e-05 3.54949e-05
-0.000891894 6.18302e-06 3.77455e-05
8.79932e-08 1.7738e-05 -2.16981e-05
7.39707e-08 1.48655e-05 -1.84804e-05
5.4534e-08 1.29631e-05 -1.64769e-05
-0.000870568 2.01084e-05 4.26886e-05
-0.000879176 2.16363e-05 3.52324e-05
-0.000887741 1.00597e-05 3.98022e-05
-3.29012e-07 3.07875e-05 -3.80536e-05
-0.000857185 1.67455e-05 4.71961e-05
-2.81032e-07 2.51525e-05 -3.13304e-05
-2.41639e-07 1.6293e-05 -2.09e-05
-0.000881273 1.12726e-05 3.81185e-05
-0.000888009 6.14979e-06 2.11383e-05
-0.000890686 9.93046e-06 1.7433e-05
-0.000894273 1.03246e-05 1.65158e-05
-1.84721e-07 1.4671e-05 -1.88699e-05
-7.98593e-08 1.2906e-05 -1.68892e-05
-5.8967e-08 1.10348e-05 -1.46132e-05
-5.64665e-08 9.08575e-06 -1.20033e-05
-0.000897817 -1.94079e-05 2.61562e-05
-0.00089927 1.44602e-06 4.98201e-06
-0.000900646 1.78486e-06 4.84332e-06
-0.00090146 2.03762e-06 4.89818e-06
-2.25533e-08 6.88565e-06 -9.18824e-06
-1.08991e-08 4.59583e-06 -6.18058e-06
-3.25016e-09 2.31464e-06 -3.09433e-06
1.69542e-12 -3.36081e-09 4.40531e-09
-5.60885e-07 2.06539e-05 -2.63108e-05
-0.000855366 2.28998e-05 3.29105e-05
-4.1921e-07 1.82958e-05 -2.34378e-05
-2.31712e-07 1.59348e-05 -2.07198e-05
-1.65166e-07 1.35063e-05 -1.777e-05
-0.000861723 6.19504e-06 2.6085e-05
-0.000863777 1.24108e-05 1.99157e-05
-0.000867031 1.39552e-05 1.67995e-05
-9.46812e-07 2.5727e-05 -3.11484e-05
-6.2897e-07 2.25781e-05 -2.74997e-05
-3.94956e-07 1.95559e-05 -2.41206e-05
-2.82113e-07 1.6487e-05 -2.05617e-05
-0.000824582 5.73136e-06 2.95538e-05
-0.000825899 1.36817e-05 2.18563e-05
-0.000828759 1.55979e-05 1.72299e-05
-0.000819175 3.00613e-05 2.98986e-05
-1.36696e-06 3.18084e-05 -3.51736e-05
-1.78649e-06 3.9365e-05 -3.8111e-05
-8.66694e-07 2.7771e-05 -3.0895e-05
-5.60271e-07 2.39717e-05 -2.6931e-05
-4.04291e-07 2.01374e-05 -2.28504e-05
-0.00077007 3.28051e-05 3.10679e-05
-0.000774627 1.51138e-05 2.83466e-05
-0.000775656 1.46783e-05 2.04414e-05
-0.000777981 1.7107e-05 1.78068e-05
-1.07629e-06 3.42988e-05 -3.33766e-05
-7.22006e-07 2.95453e-05 -2.89761e-05
-5.18344e-07 2.47491e-05 -2.44987e-05
-0.000712433 1.92783e-05 2.47738e-05
-0.000713459 1.49968e-05 1.92347e-05
-0.000715362 1.63319e-05 1.77948e-05
-0.000709736 3.21119e-05 2.93164e-05
-1.19433e-07 1.10553e-05 -1.45159e-05
-6.6875e-08 8.35929e-06 -1.1061e-05
-3.23528e-08 5.56929e-06 -7.4242e-06
-9.78147e-09 2.80196e-06 -3.71237e-06
7.59411e-12 -6.01277e-09 7.81082e-09
-0.000870479 -8.38912e-06 1.78918e-05
-0.000871819 -1.05385e-06 7.05883e-06
-0.000873031 9.12408e-07 4.90299e-06
-0.000873701 2.87442e-06 2.97512e-06
-1.92242e-07 1.34339e-05 -1.67344e-05
-1.15567e-07 1.01347e-05 -1.27194e-05
-5.65737e-08 6.7501e-06 -8.52184e-06
-1.76314e-08 3.39222e-06 -4.25471e-06
-0.000831812 3.55811e-06 9.52737e-06
-0.00083301 -2.68535e-06 9.12744e-06
-0.00083403 -5.44656e-07 5.91325e-06
-0.000834542 1.58107e-06 2.91002e-06
2.40698e-11 -1.1953e-08 1.47092e-08
-2.74468e-07 1.63488e-05 -1.85449e-05
-1.64444e-07 1.23221e-05 -1.40651e-05
-8.30822e-08 8.20385e-06 -9.40736e-06
-2.77385e-08 4.11354e-06 -4.68695e-06
9.19451e-11 -2.53467e-08 2.83805e-08
-0.000780376 1.36467e-05 7.83428e-06
-0.00078167 -5.58084e-06 9.85548e-06
-0.000782397 -2.674e-06 8.37702e-06
-0.000782729 1.23978e-07 7.07407e-06
-3.49668e-07 2.00393e-05 -1.98416e-05
-2.13117e-07 1.51206e-05 -1.50363e-05
-1.09463e-07 1.00623e-05 -1.00425e-05
-3.84074e-08 5.03637e-06 -4.99574e-06
1.78312e-10 -3.75771e-08 3.67064e-08
-6.05044e-08 -2.55069e-06 2.60971e-06
-0.000838558 -2.04082e-05 1.79977e-05
-0.000844854 -1.04492e-05 1.67501e-05
-0.000849425 -1.16935e-05 1.26742e-05
-0.000853356 -1.27777e-05 8.64376e-06
-1.65261e-08 -1.09781e-06 1.12796e-06
-1.53405e-09 -1.0322e-07 1.07536e-07
5.9423e-09 4.43619e-07 -4.6707e-07
5.1757e-08 2.83215e-06 -3.20562e-06
-0.000870042 -1.36212e-05 2.10419e-05
-0.000876795 -5.9071e-06 1.74778e-05
-0.000881238 -9.28422e-06 1.48786e-05
-0.000885211 -1.29289e-05 1.28652e-05
4.03081e-08 3.39419e-06 -3.85911e-06
4.51132e-08 3.60671e-06 -4.16549e-06
3.81724e-08 3.46206e-06 -4.0421e-06
8.2489e-08 7.50616e-06 -9.17749e-06
-0.000890163 -6.62445e-06 2.64056e-05
-0.000897131 -1.42585e-06 1.70853e-05
-0.000901214 -6.39576e-06 1.66642e-05
-0.000905119 -1.30515e-05 1.72787e-05
4.88e-08 7.29014e-06 -8.95504e-06
5.79985e-08 6.81361e-06 -8.51774e-06
4.29265e-08 6.07471e-06 -7.68069e-06
1.6519e-08 1.18223e-05 -1.51432e-05
-0.000899981 1.25442e-06 3.0943e-05
-0.000907092 2.49047e-06 1.59483e-05
-0.000910712 -3.67036e-06 1.82878e-05
-0.000914455 -1.33299e-05 2.18967e-05
-0.000896328 8.53813e-06 3.72103e-05
-1.33199e-10 1.08935e-05 -1.40076e-05
3.14641e-08 9.76997e-06 -1.27975e-05
1.66999e-08 8.47272e-06 -1.12334e-05
-0.000903365 8.91709e-06 1.54402e-05
-0.0009064 -4.67545e-07 1.92201e-05
-0.000910021 -1.27331e-05 2.53877e-05
7.35907e-09 6.43546e-07 -6.79553e-07
-0.000855854 -1.09069e-05 8.95236e-06
-0.000858079 4.27211e-06 5.96293e-06
-0.000859666 3.00097e-06 2.06611e-06
-0.000860577 1.54333e-06 -1.88591e-06
5.52156e-09 6.11782e-07 -6.48908e-07
3.53395e-09 4.50784e-07 -4.80131e-07
1.54888e-09 2.34298e-07 -2.48559e-07
-1.45011e-11 -2.70006e-09 2.82959e-09
2.69578e-08 3.03761e-06 -3.55442e-06
-0.000887862 -8.12198e-06 1.17595e-05
-0.000889951 5.47667e-06 6.74254e-06
-0.000891528 1.22459e-06 5.01554e-06
-0.000892426 -3.30193e-06 3.23789e-06
1.87787e-08 2.39504e-06 -2.81914e-06
1.08629e-08 1.63064e-06 -1.9299e-06
4.48246e-09 8.25495e-07 -9.72757e-07
-6.90958e-12 -1.65682e-09 1.92482e-09
2.64278e-08 5.11988e-06 -6.48569e-06
-0.000907922 -4.92757e-06 1.22027e-05
-0.000909859 6.98718e-06 5.91793e-06
-0.000911434 -6.06908e-07 7.13024e-06
-0.000912333 -8.45619e-06 8.34782e-06
2.39016e-08 3.95078e-06 -5.0328e-06
1.30887e-08 2.65894e-06 -3.41116e-06
5.02204e-09 1.34089e-06 -1.71265e-06
-8.24194e-12 -3.26256e-09 4.10125e-09
5.8141e-09 7.02893e-06 -9.32823e-06
-0.000917429 -1.59505e-06 1.09663e-05
-0.000919173 8.94919e-06 4.06818e-06
-0.000920707 -1.94221e-06 8.5367e-06
-0.000921588 -1.3086e-05 1.30425e-05
1.9521e-08 5.37021e-06 -7.1725e-06
9.53018e-09 3.59437e-06 -4.83908e-06
2.98047e-09 1.81095e-06 -2.42583e-06
-1.8221e-12 -3.05981e-09 4.02532e-09
-0.000912874 2.86446e-06 1.11019e-05