# vtk DataFile Version 3.0
vtk output
ASCII
DATASET POLYDATA
POINTS 9898 float
0.000945127 0.0874415 -0.0465521
0.0209614 0.0876334 -0.0462955
0.000717458 0.0680353 -0.0452633
0.0207273 0.0681798 -0.0448948
0.0108329 0.0778215 -0.0460173
0.0308397 0.0780019 -0.0456765
0.000496325 0.0486306 -0.0435638
0.0205014 0.0487325 -0.0431971
0.0106054 0.0584065 -0.0444843
0.0306087 0.0585387 -0.0440974
0.000286222 0.0292103 -0.0414526
0.0202881 0.0292729 -0.041185
0.0103859 0.0389861 -0.0425976
0.0303866 0.0390744 -0.0422704
0.0409594 0.0878393 -0.0460667
0.0407249 0.0683294 -0.0445555
0.0405006 0.0488353 -0.0428716
0.0609523 0.0880123 -0.0459986
0.0809254 0.0882125 -0.0457068
0.100882 0.0884071 -0.0453812
0.0607214 0.0684711 -0.0443352
0.0807005 0.0686193 -0.043977
0.100667 0.0687612 -0.0436196
0.050838 0.0781529 -0.0455191
0.0708209 0.0783291 -0.0451963
0.0907896 0.0785006 -0.0448561
0.060498 0.04894 -0.0426022
0.0804833 0.0490402 -0.0422655
0.10046 0.0491344 -0.0419462
0.0506083 0.0586553 -0.0438421
0.0705955 0.0587825 -0.0434858
0.0905728 0.0589044 -0.0431375
0.0402901 0.0293382 -0.0409846
0.0602868 0.0293989 -0.0407334
0.0802786 0.0294569 -0.0404911
0.100266 0.0295106 -0.0402677
0.0503869 0.0391559 -0.0420171
0.0703789 0.0392391 -0.0417143
0.0903651 0.0393176 -0.0414294
0.00115679 0.106862 -0.0475341
0.0211778 0.107109 -0.0475401
0.0110522 0.0972396 -0.0472805
0.0310619 0.0974724 -0.0471277
0.00136837 0.126332 -0.0481745
0.0213902 0.126637 -0.0485799
0.0112593 0.116698 -0.0482596
0.0312699 0.116987 -0.0484317
0.00157597 0.14587 -0.0484936
0.0215985 0.146238 -0.049401
0.0114629 0.136221 -0.0489475
0.0314679 0.13657 -0.0495772
0.0116673 0.155823 -0.0493707
0.0316536 0.156234 -0.0506102
0.0411722 0.107376 -0.0475368
0.0510501 0.0976682 -0.0471203
0.0611614 0.107565 -0.0477541
0.081129 0.107815 -0.0476493
0.101077 0.10806 -0.0474657
0.0710356 0.097877 -0.0470161
0.0909982 0.0980944 -0.0467885
0.0413811 0.126958 -0.0489637
0.0415778 0.146617 -0.0503132
0.0512479 0.117238 -0.0487008
0.0613476 0.127191 -0.0494949
0.0813133 0.127471 -0.049751
0.101252 0.127763 -0.0497945
0.0712306 0.117467 -0.0489081
0.0911863 0.117732 -0.0488912
0.0514315 0.13688 -0.050264
0.061518 0.146896 -0.0513183
0.0814664 0.147197 -0.0520341
0.101396 0.147524 -0.052399
0.0714 0.13712 -0.0509186
0.0913482 0.137425 -0.0512102
0.0515973 0.156581 -0.051873
0.071532 0.156862 -0.0530711
0.0914685 0.157198 -0.0537908
0.110758 0.0786309 -0.0446953
0.120846 0.0885136 -0.0454289
0.140791 0.0886567 -0.0451303
0.160734 0.0887936 -0.0448266
0.12064 0.0688464 -0.0435416
0.1406 0.0689527 -0.0432564
0.160557 0.0690519 -0.0429889
0.130715 0.078745 -0.0444785
0.150665 0.0788663 -0.044194
0.120443 0.0492029 -0.0418104
0.140415 0.0492744 -0.041581
0.160386 0.049339 -0.0413769
0.110552 0.0589961 -0.0429549
0.13052 0.0590902 -0.0426869
0.150484 0.0591752 -0.0424472
0.120255 0.0295567 -0.040151
0.140241 0.0295967 -0.0399995
0.160225 0.0296319 -0.0398694
0.110351 0.0393838 -0.0412406
0.130332 0.039444 -0.0410358
0.15031 0.0394969 -0.0408603
0.170614 0.0789645 -0.0438927
0.170448 0.0592443 -0.0422042
0.180669 0.0888761 -0.0445904
0.200606 0.088935 -0.0445234
0.220547 0.0889891 -0.0444277
0.180508 0.0691184 -0.042775
0.200462 0.0691654 -0.0426978
0.22042 0.0692067 -0.042604
0.190558 0.079021 -0.0437974
0.210505 0.0790732 -0.0437121
0.230455 0.079119 -0.043606
0.180354 0.0493879 -0.041192
0.200324 0.049422 -0.0411202
0.220295 0.0494502 -0.0410404
0.190409 0.0592911 -0.0420982
0.210372 0.0593302 -0.0420152
0.230337 0.0593625 -0.0419236
0.180207 0.0296646 -0.0397562
0.20019 0.0296842 -0.0397031
0.220174 0.0296998 -0.0396491
0.170288 0.0395441 -0.0406827
0.190265 0.0395756 -0.0406096
0.210242 0.0396013 -0.0405412
0.23022 0.0396219 -0.040474
0.110958 0.0982745 -0.0466761
0.121043 0.108186 -0.0476433
0.140976 0.108362 -0.0474051
0.160908 0.108534 -0.0471344
0.130912 0.0983976 -0.0465805
0.150852 0.0985502 -0.0463193
0.11113 0.117969 -0.0489002
0.111288 0.137699 -0.0515225
0.111412 0.157502 -0.0545269
0.121213 0.127922 -0.0501433
0.141134 0.128119 -0.0500873
0.161055 0.128321 -0.0498855
0.131086 0.118097 -0.0489891
0.151014 0.118281 -0.0487956
0.121345 0.147724 -0.0530749
0.141257 0.147928 -0.0531949
0.161167 0.148146 -0.0530775
0.13123 0.137848 -0.0518107
0.15115 0.13805 -0.0517082
0.13133 0.157673 -0.0550746
0.15124 0.157883 -0.0551087
0.170776 0.098694 -0.046051
0.180838 0.108634 -0.0469124
0.200746 0.108697 -0.0468821
0.220675 0.108762 -0.0467921
0.190708 0.0987469 -0.045943
0.210643 0.0988061 -0.0458613
0.230583 0.0988625 -0.0457722
0.170939 0.118453 -0.0485843
0.171081 0.13824 -0.0515578
0.171174 0.15808 -0.0550463
0.180989 0.128434 -0.0497252
0.200873 0.128488 -0.049737
0.220791 0.128561 -0.0496494
0.190847 0.118503 -0.0485307
0.210768 0.118571 -0.0484416
0.230698 0.118638 -0.0483607
0.181098 0.148273 -0.053046
0.200982 0.148297 -0.0531089
0.220889 0.148368 -0.0530077
0.190968 0.138279 -0.0516417
0.210878 0.138347 -0.0515374
0.230802 0.138414 -0.0514555
0.191064 0.158098 -0.0552854
0.210965 0.158157 -0.055176
0.230881 0.158217 -0.0550953
0.100896 0.22748 -0.0659719
0.0906627 0.237316 -0.066648
0.100376 0.247669 -0.0698236
0.090065 0.257755 -0.0697818
0.0996852 0.268204 -0.0732159
0.0988727 0.289039 -0.0760485
0.0893428 0.278422 -0.0725534
0.0792005 0.288669 -0.07095
0.0799566 0.267927 -0.0688531
0.0697759 0.278018 -0.0672205
0.0805914 0.247413 -0.0662651
0.0704189 0.257408 -0.0652881
0.0598478 0.288052 -0.0647106
0.0017801 0.165481 -0.0485694
0.0217758 0.165911 -0.0501761
0.0118311 0.175501 -0.0496376
0.0317699 0.175984 -0.0516846
0.00196042 0.185189 -0.0483041
0.0219075 0.185682 -0.0507412
0.0119558 0.195302 -0.049651
0.0318225 0.19585 -0.0525958
0.00212916 0.204995 -0.0476729
0.0220024 0.205566 -0.0510439
0.0120904 0.215221 -0.049337
0.0318411 0.215843 -0.0532742
0.00236555 0.224914 -0.0466265
0.0220615 0.225607 -0.0511248
0.0417185 0.166347 -0.0517223
0.0516674 0.17637 -0.0536338
0.0616274 0.166645 -0.0534089
0.0815476 0.16699 -0.0547024
0.101469 0.16735 -0.055565
0.0715611 0.176677 -0.0555146
0.0914796 0.177042 -0.0568222
0.0417877 0.186184 -0.0531787
0.0417825 0.206149 -0.0544796
0.0417086 0.226254 -0.0556385
0.0516461 0.196303 -0.0553456
0.0616438 0.186529 -0.0554737
0.0815205 0.186892 -0.0574817
0.101428 0.187276 -0.0589002
0.0714823 0.196638 -0.0579671
0.0913653 0.197016 -0.0599679
0.0515463 0.216383 -0.0570092
0.0615561 0.206538 -0.0575589
0.0813657 0.206914 -0.0603684
0.101251 0.207317 -0.0624006
0.0712923 0.216744 -0.0604667
0.0613498 0.226704 -0.0596881
0.0810857 0.227116 -0.0632577
0.0911049 0.217122 -0.063296
0.00257449 0.244914 -0.0453065
0.0121597 0.235242 -0.0488418
0.031742 0.235942 -0.0539379
0.0220075 0.245745 -0.0511615
0.0122453 0.255382 -0.0478489
0.031595 0.256171 -0.0541661
0.00275455 0.264984 -0.0436059
0.0219647 0.265991 -0.0505808
0.012353 0.275594 -0.046404
0.0313915 0.276557 -0.0539485
0.00305335 0.285088 -0.041353
0.0219171 0.286326 -0.0495131
0.0512869 0.236551 -0.0587738
0.0709213 0.236987 -0.0630117
0.0414711 0.246445 -0.0567481
0.0411791 0.266784 -0.057388
0.0408293 0.28724 -0.0575417
0.0509289 0.256882 -0.0600796
0.0609545 0.246981 -0.0617617
0.0504814 0.277357 -0.0609616
0.0604607 0.267427 -0.0634186
0.130908 0.217526 -0.0670853
0.150929 0.217638 -0.0680473
0.110986 0.217443 -0.0655106
0.121168 0.207479 -0.0641396
0.14111 0.207629 -0.0652712
0.161091 0.207783 -0.0657692
0.170925 0.217679 -0.0686649
0.190904 0.217722 -0.0694612
0.210928 0.217692 -0.0695044
0.230947 0.217662 -0.0694867
0.18103 0.20786 -0.0664334
0.201017 0.207808 -0.0667594
0.221002 0.207816 -0.0666631
0.191082 0.197801 -0.0642803
0.21101 0.197805 -0.0642591
0.230965 0.197834 -0.0642242
0.11053 0.237646 -0.0695177
0.150572 0.237796 -0.0729751
0.140799 0.227697 -0.0700342
0.160823 0.227762 -0.070803
0.13051 0.237751 -0.0716631
0.120822 0.227595 -0.0684707
0.109933 0.258081 -0.0733311
0.109152 0.278791 -0.0769266
0.150074 0.258214 -0.0777643
0.120284 0.247927 -0.0727242
0.140337 0.247988 -0.0747664
0.160441 0.247999 -0.0758221
0.129935 0.258216 -0.0760724
0.139707 0.268543 -0.079284
0.159922 0.268502 -0.0806593
0.12918 0.278973 -0.0801808
0.149422 0.278948 -0.0822271
0.119581 0.268526 -0.0768972
0.118724 0.289401 -0.0805525
0.159291 0.289407 -0.0849921
0.138925 0.28945 -0.0833412
0.170635 0.237814 -0.073833
0.190651 0.237816 -0.0747889
0.210754 0.237738 -0.0749586
0.230831 0.237674 -0.0749448
0.180737 0.227877 -0.0717376
0.200861 0.227784 -0.0721516
0.220901 0.227742 -0.072099
0.17023 0.258155 -0.0788557
0.169716 0.278864 -0.0835582
0.200618 0.247897 -0.0776039
0.220746 0.247816 -0.0775786
0.190283 0.258152 -0.0800167
0.2105 0.258031 -0.0802847
0.230666 0.257933 -0.0802441
0.180414 0.248056 -0.0770326
0.179984 0.268455 -0.0821299
0.189808 0.278777 -0.0850068
0.210163 0.27864 -0.0853781
0.230439 0.27851 -0.0853137
0.200249 0.268348 -0.0828073
0.220484 0.268237 -0.0828329
0.179489 0.289309 -0.0866904
0.19981 0.289168 -0.0875494
0.220169 0.289044 -0.0876334
0.111416 0.177347 -0.0578698
0.121397 0.167567 -0.0564447
0.141318 0.167762 -0.0568599
0.161237 0.167985 -0.0569349
0.131324 0.177519 -0.0588267
0.151242 0.177726 -0.059109
0.11129 0.197302 -0.0614051
0.121341 0.187471 -0.0601443
0.141275 0.187644 -0.060921
0.161211 0.187859 -0.0611983
0.131207 0.197471 -0.0628625
0.151143 0.197655 -0.0634371
0.171169 0.177924 -0.0592496
0.181158 0.168122 -0.057091
0.20106 0.168108 -0.0571932
0.220972 0.168182 -0.0571252
0.191114 0.177921 -0.0595857
0.211012 0.177961 -0.0595225
0.23094 0.178028 -0.059483
0.171111 0.197839 -0.0637968
0.181172 0.187974 -0.0615559
0.201077 0.187936 -0.0617648
0.221005 0.188003 -0.0617039
0.240483 0.0890057 -0.0443158
0.240363 0.0692157 -0.0425015
0.260412 0.0889846 -0.0443406
0.280386 0.0890081 -0.044312
0.300368 0.0890527 -0.0442266
0.260317 0.0692122 -0.042502
0.280297 0.0692321 -0.0424645
0.300284 0.069266 -0.0423889
0.250384 0.0790985 -0.0435684
0.270353 0.0791156 -0.0435518
0.290329 0.0791463 -0.0434935
0.240242 0.0494535 -0.040964
[...]
POINT_DATA 9898
VECTORS alpha float
-5.65746e-06 -0.000513802 3.73544e-05
-4.3285e-06 -0.000377417 3.13229e-05
-9.47487e-06 -0.000869725 8.03731e-05
-6.55305e-06 -0.000578997 5.60193e-05
-0.000366923 -2.46314e-06 -5.21522e-06
-0.000573928 -4.41535e-06 -9.06136e-06
-1.29341e-05 -0.00121528 0.000136945
-8.46426e-06 -0.000773335 8.62303e-05
-0.000354761 -1.53794e-06 -5.11288e-06
-0.000553585 -2.71932e-06 -8.51198e-06
-1.54091e-05 -0.00154626 0.000206288
-9.70736e-06 -0.000958107 0.000122297
-0.000337626 -7.26066e-07 -3.16269e-06
-0.000525466 -1.2551e-06 -5.13603e-06
-2.95184e-06 -0.000251056 2.34897e-05
-3.92747e-06 -0.000340499 3.43443e-05
-4.6876e-06 -0.000425407 4.65897e-05
-2.05993e-06 -0.000182253 1.84143e-05
-1.37111e-06 -0.00012641 1.36e-05
-8.01634e-07 -7.78717e-05 8.74154e-06
-2.49619e-06 -0.000223823 2.28936e-05
-1.56273e-06 -0.000145288 1.51478e-05
-9.03373e-07 -8.82319e-05 9.29006e-06
-0.00066555 -4.66356e-06 -8.70368e-06
-0.000707723 -4.91583e-06 -1.00347e-05
-0.000726608 -4.87433e-06 -1.05171e-05
-2.80533e-06 -0.000262382 2.79743e-05
-1.67542e-06 -0.000162151 1.69177e-05
-9.59576e-07 -9.73605e-05 9.92308e-06
-0.000640275 -2.83153e-06 -8.42429e-06
-0.000679211 -2.93316e-06 -9.00061e-06
-0.000696025 -2.85278e-06 -8.83088e-06
-5.08034e-06 -0.0005048 6.08098e-05
-2.93438e-06 -0.000297509 3.40128e-05
-1.68799e-06 -0.00017685 1.91888e-05
-9.60021e-07 -0.000105198 1.08582e-05
-0.00060602 -1.26533e-06 -5.22284e-06
-0.000641202 -1.28999e-06 -5.3866e-06
-0.000655742 -1.23527e-06 -5.12092e-06
-1.6069e-06 -0.000151092 8.31107e-06
-1.87666e-06 -0.000170578 1.23567e-05
-0.000374256 -3.45515e-06 -2.71445e-06
-0.000586709 -6.31889e-06 -5.23593e-06
2.21579e-06 0.000214536 -8.00511e-06
4.05616e-07 3.9361e-05 -2.44408e-06
-0.000376338 -4.53322e-06 2.49041e-06
-0.00059124 -8.24093e-06 2.76041e-06
6.15874e-06 0.000579478 -1.15228e-05
2.35427e-06 0.000250212 -1.28636e-05
-0.000373375 -5.65614e-06 1.01802e-05
-0.000587764 -1.01042e-05 1.45633e-05
-0.000365133 -6.75957e-06 2.03752e-05
-0.000575961 -1.17457e-05 3.01641e-05
-1.78168e-06 -0.000157767 1.39488e-05
-0.00068195 -6.78638e-06 -5.56437e-06
-1.45853e-06 -0.000137893 1.43444e-05
-1.05796e-06 -0.000105535 1.22559e-05
-6.2556e-07 -6.6236e-05 8.30021e-06
-0.000727141 -6.83609e-06 -6.98778e-06
-0.00074794 -6.89691e-06 -8.50091e-06
-6.35002e-07 -6.19425e-05 5.32145e-06
3.06319e-07 3.552e-05 -2.93735e-06
-0.000688801 -9.05387e-06 2.39952e-06
-8.48488e-07 -9.13066e-05 9.96888e-06
-6.97775e-07 -8.28674e-05 1.0403e-05
-4.12988e-07 -5.33725e-05 7.4375e-06
-0.000736313 -8.86161e-06 2.85586e-07
-0.000758852 -8.99287e-06 -2.95006e-06
-0.000686313 -1.11032e-05 1.46801e-05
-3.09176e-07 -4.30039e-05 4.85309e-06
-3.44332e-07 -5.88104e-05 7.92039e-06
-1.99472e-07 -3.96204e-05 6.05429e-06
-0.00073531 -1.05423e-05 1.17243e-05
-0.000759195 -1.06914e-05 5.99184e-06
-0.000673872 -1.28498e-05 3.13783e-05
-0.000723877 -1.17647e-05 2.7636e-05
-0.000748928 -1.1849e-05 1.88048e-05
-0.000736869 -4.15201e-06 -9.59921e-06
-3.87955e-07 -3.82455e-05 4.52097e-06
-8.95401e-08 -9.81788e-06 1.16761e-06
5.72411e-08 7.10196e-06 -8.43572e-07
-4.76913e-07 -4.79707e-05 5.10141e-06
-2.02164e-07 -2.23504e-05 2.35414e-06
-7.06988e-08 -8.72002e-06 9.07817e-07
-0.000746791 -3.70669e-06 -8.95684e-06
-0.000759394 -3.57643e-06 -8.71688e-06
-5.39892e-07 -5.70585e-05 5.67632e-06
-3.01647e-07 -3.46326e-05 3.34959e-06
-1.94029e-07 -2.45014e-05 2.31062e-06
-0.000705187 -2.3235e-06 -7.14952e-06
-0.000714299 -2.19195e-06 -6.58652e-06
-0.000726662 -2.0583e-06 -6.04866e-06
-5.72188e-07 -6.54341e-05 6.42448e-06
-3.78673e-07 -4.65323e-05 4.37749e-06
-3.00202e-07 -4.00476e-05 3.6344e-06
-0.000663531 -1.00041e-06 -3.90718e-06
-0.000671883 -9.26981e-07 -3.49615e-06
-0.000683836 -8.5841e-07 -3.11659e-06
-0.000775335 -2.94096e-06 -5.47535e-06
-0.000742582 -1.54462e-06 -3.08872e-06
1.12404e-07 1.4143e-05 -1.68323e-06
1.00108e-07 1.43628e-05 -1.71709e-06
6.65958e-08 1.10741e-05 -1.32504e-06
-2.95433e-08 -3.81369e-06 3.93457e-07
-2.82122e-08 -4.12016e-06 4.24585e-07
-3.89055e-08 -6.5157e-06 6.70194e-07
-0.000793429 -1.63402e-06 -1.65631e-06
-0.000812196 -1.50768e-06 -2.6866e-06
-0.000830057 -1.41552e-06 -3.97872e-06
-1.61242e-07 -2.18192e-05 2.02425e-06
-1.4968e-07 -2.26392e-05 2.07845e-06
-1.4101e-07 -2.40872e-05 2.19329e-06
-0.000760782 -1.02945e-06 -1.52346e-06
-0.00077953 -8.90466e-07 -2.11196e-06
-0.000797312 -7.67212e-07 -2.85891e-06
-2.76404e-07 -3.96291e-05 3.49737e-06
-2.59137e-07 -4.09372e-05 3.53878e-06
-2.35985e-07 -4.13963e-05 3.52115e-06
-0.000699491 -5.17425e-07 -7.01973e-07
-0.000717458 -4.37512e-07 -9.11275e-07
-0.000735902 -3.60233e-07 -1.16206e-06
-0.000753333 -2.88621e-07 -1.48545e-06
-0.000759374 -6.00339e-06 -9.07873e-06
-2.59305e-07 -2.78614e-05 3.78228e-06
2.35483e-08 2.9089e-06 -4.03168e-07
1.56573e-07 2.28218e-05 -3.19174e-06
-0.000770012 -5.08884e-06 -8.62159e-06
-0.000782817 -5.03516e-06 -8.93903e-06
-0.000771355 -7.96257e-06 -5.41992e-06
-0.000772287 -9.42102e-06 4.63967e-07
-0.000762574 -1.0312e-05 9.54237e-06
-1.25804e-07 -1.6835e-05 2.64034e-06
1.02921e-07 1.58102e-05 -2.54268e-06
1.98074e-07 3.83875e-05 -6.26482e-06
-0.000782608 -6.4937e-06 -6.09865e-06
-0.000795617 -6.52947e-06 -7.57303e-06
-2.78649e-08 -5.49243e-06 9.71674e-07
1.22163e-07 2.85064e-05 -5.2431e-06
1.58126e-07 5.33799e-05 -1.00113e-05
-0.00078391 -7.32405e-06 -2.2689e-06
-0.000796776 -7.50373e-06 -5.38146e-06
-0.000774253 -7.64616e-06 3.62236e-06
-0.000786863 -7.95383e-06 -1.59794e-06
-0.000798519 -4.22828e-06 -9.40009e-06
2.23615e-07 3.1858e-05 -4.50056e-06
2.13042e-07 3.25486e-05 -4.65637e-06
1.5582e-07 2.83912e-05 -4.06904e-06
-0.000816255 -1.95758e-06 -2.07872e-06
-0.000834844 -1.96625e-06 -2.49087e-06
-0.000852569 -2.0458e-06 -3.2397e-06
-0.000811216 -5.63974e-06 -8.63903e-06
-0.000811865 -6.57938e-06 -7.39324e-06
-0.000801271 -6.98182e-06 -4.88386e-06
2.76883e-07 4.92489e-05 -8.14121e-06
2.89117e-07 5.0342e-05 -8.49747e-06
2.11909e-07 4.53463e-05 -7.66783e-06
-0.000828289 -2.39777e-06 -3.02426e-06
-0.000846597 -2.47127e-06 -2.67969e-06
-0.000864095 -2.65255e-06 -2.77653e-06
2.6493e-07 6.58789e-05 -1.25549e-05
3.04763e-07 6.73478e-05 -1.30753e-05
2.18228e-07 6.15835e-05 -1.19843e-05
-0.000827727 -2.4761e-06 -4.23967e-06
-0.000845331 -2.5313e-06 -3.19481e-06
-0.000862237 -2.72727e-06 -2.70493e-06
-0.00081599 -2.14739e-06 -4.79371e-06
-0.00083268 -2.234e-06 -3.41393e-06
-0.000848771 -2.49726e-06 -2.66252e-06
-4.93388e-07 2.06509e-05 -3.80569e-06
-0.000603262 -1.03936e-05 8.902e-05
-1.21842e-06 3.62065e-05 -6.21145e-06
-0.000541738 -9.2225e-06 0.000100394
-2.15405e-06 5.14876e-05 -7.96952e-06
-3.12372e-06 6.62055e-05 -8.59108e-06
-0.000471904 -8.92566e-06 0.00010545
-5.43832e-06 0.000121695 -1.16683e-05
-3.75194e-06 9.7051e-05 -1.18343e-05
-0.000443651 -1.26944e-05 0.000125074
-2.17745e-06 7.13657e-05 -9.99385e-06
-0.000513226 -1.30914e-05 0.000119356
-1.07196e-05 0.000290452 -1.57433e-05
8.7849e-06 0.000939578 -2.6066e-06
3.19679e-06 0.000459583 -1.89757e-05
-0.00035151 -7.88013e-06 3.30562e-05
-0.000555622 -1.33185e-05 5.02962e-05
1.05069e-05 0.00129056 1.89476e-05
2.90249e-06 0.00066502 -2.01462e-05
-0.000332587 -9.1251e-06 4.62646e-05
-0.000526937 -1.46729e-05 7.13254e-05
1.16308e-05 0.00162783 5.2797e-05
1.59966e-06 0.000863886 -1.58922e-05
-0.000308254 -1.03833e-05 5.81711e-05
-0.000489628 -1.59226e-05 9.07858e-05
1.66776e-05 0.00194507 0.000100458
4.28305e-07 0.0010529 -4.01015e-06
6.77113e-07 0.000133467 -1.06296e-05
-0.000651811 -1.41133e-05 5.27693e-05
1.67639e-08 6.42474e-06 -7.4795e-07
-2.99202e-08 -3.36443e-05 4.84327e-06
3.75816e-09 -2.51284e-05 4.17631e-06
-0.000702119 -1.26495e-05 4.83306e-05
-0.00072815 -1.27433e-05 3.65222e-05
1.7723e-07 0.000230754 -1.73924e-05
-1.27773e-06 0.000326176 -2.25593e-05
-3.39876e-06 0.000418215 -2.49202e-05
-0.000620063 -1.51764e-05 7.4899e-05
-1.57362e-07 5.63567e-05 -6.66787e-06
4.17685e-08 -7.73574e-06 1.1699e-06
6.88493e-08 -1.01475e-05 1.79886e-06
-0.000669979 -1.35074e-05 6.85197e-05
-0.000697001 -1.31106e-05 5.45446e-05
-0.000578279 -1.5844e-05 9.58032e-05
-9.45309e-07 0.000106203 -1.24019e-05
-2.36429e-07 1.86225e-05 -2.88171e-06
-7.48398e-08 5.17542e-06 -9.51779e-07
-0.000627336 -1.39868e-05 8.76878e-05
-2.39603e-06 0.000155299 -1.75783e-05
-9.13304e-07 4.50835e-05 -6.93927e-06
-0.000655302 -1.32164e-05 7.33661e-05
1.95073e-05 0.00223566 0.000162549
-0.000278735 -1.13697e-05 6.85262e-05
-0.000444129 -1.66948e-05 0.000108711
-4.09718e-06 0.00122849 2.03634e-05
-0.000244758 -1.20965e-05 7.51639e-05
-0.000391474 -1.72616e-05 0.000120066
1.99192e-05 0.0024951 0.000240678
-7.5775e-06 0.00138757 5.16446e-05
-0.000207104 -1.24648e-05 7.66344e-05
-0.000332966 -1.77511e-05 0.000123346
2.84552e-05 0.00271554 0.000321884
-9.81626e-06 0.00152604 9.25755e-05
-0.000526952 -1.61448e-05 0.000116589
-0.000574975 -1.40059e-05 0.000106775
-7.547e-06 0.000505261 -2.05534e-05
-1.16578e-05 0.000585852 -1.26165e-05
-1.54921e-05 0.000658389 7.92658e-07
-0.000467228 -1.64759e-05 0.000129787
-4.94472e-06 0.000202842 -1.97565e-05
-0.000400366 -1.67914e-05 0.000135101
-7.82401e-06 0.000248202 -1.96278e-05
-0.000685053 -5.9391e-06 3.10124e-05
-0.000696304 -3.666e-06 2.06313e-05
-0.000672525 -1.08529e-05 5.09998e-05
-4.15854e-07 2.92272e-05 -6.48696e-06
-8.61082e-07 6.43038e-05 -1.54336e-05
-1.21856e-06 9.38033e-05 -2.30619e-05
-0.000707912 -2.25817e-06 9.9187e-06
-0.000720655 -2.26702e-06 -8.90152e-06
-0.000730928 4.03198e-07 -3.59539e-06
-0.00074152 1.72582e-06 2.02844e-06
-1.24774e-06 0.000110092 -2.76781e-05
-7.36658e-07 0.000112502 -2.89513e-05
-5.43447e-07 0.000104855 -2.70168e-05
-0.000761689 -2.05452e-06 -7.47546e-06
-0.000774989 -1.06804e-06 -3.27339e-06
-0.000788415 -1.18669e-06 5.75514e-07
-0.000621759 -8.69032e-06 6.4614e-05
-0.000644604 -6.02436e-07 2.65849e-05
-1.67132e-06 7.53272e-05 -1.81597e-05
-2.07935e-06 0.000105796 -2.62531e-05
-0.000634453 -4.44724e-06 3.9847e-05
-9.83841e-07 4.06706e-05 -8.95395e-06
-0.000560817 -6.60768e-06 7.44078e-05
-0.000491408 -5.90079e-06 7.96497e-05
-0.000583802 1.03767e-06 3.14109e-05
-1.81765e-06 5.18487e-05 -1.08209e-05
-2.61742e-06 8.57251e-05 -2.00374e-05
-3.11955e-06 0.000116809 -2.83703e-05
-0.000574514 -3.24579e-06 4.65859e-05
-3.6574e-06 9.53739e-05 -2.06935e-05
-4.24843e-06 0.000126757 -2.90276e-05
-0.000505854 -2.47673e-06 4.99321e-05
-0.000514126 1.46019e-06 3.31762e-05
-2.65384e-06 6.2538e-05 -1.20734e-05
-3.5211e-06 7.26301e-05 -1.20424e-05
-5.36245e-06 0.000135476 -2.7799e-05
-4.59989e-06 0.000103922 -1.99874e-05
-0.000655667 8.46947e-07 1.2768e-05
-0.000667331 -1.31338e-06 -6.4736e-06
-0.000675149 1.25944e-06 -3.74749e-06
-0.000683075 2.91278e-06 2.29674e-06
-2.24801e-06 0.000122942 -3.13304e-05
-1.52388e-06 0.000125642 -3.24984e-05
-1.11393e-06 0.000117517 -3.05133e-05
-0.000592829 3.17149e-06 1.73496e-05
-0.000521301 3.661e-06 1.96035e-05
-2.46216e-06 0.000137823 -3.47988e-05
-1.76649e-06 0.000129321 -3.29873e-05
-0.000603966 -2.67305e-07 -4.8725e-06
-0.00060926 1.97541e-06 -4.68453e-06
-0.000614357 3.79449e-06 1.50317e-06
-3.34848e-06 0.000134611 -3.33064e-05
-4.24644e-06 0.000145262 -3.39282e-05
-0.000530831 5.98082e-07 -3.13038e-06
-0.000533639 2.40274e-06 -5.14038e-06
-0.00053593 4.31484e-06 9.10828e-07
-3.28753e-06 0.000148639 -3.55258e-05
-2.38008e-06 0.000139862 -3.38848e-05
-5.19573e-06 0.000154554 -3.2553e-05
-4.05265e-06 0.0001582 -3.39477e-05
-2.94144e-06 0.000149314 -3.26508e-05
-0.000742747 -1.0627e-05 2.19405e-05
3.56917e-09 6.07169e-06 -1.19281e-06
-1.31543e-09 4.09006e-05 -8.46482e-06
-7.9396e-08 6.76706e-05 -1.42998e-05
-0.000754218 -7.81867e-06 1.15478e-05
-0.000766523 -7.90939e-06 5.04167e-06
-0.000712652 -1.03888e-05 3.51483e-05
-9.37837e-08 1.76681e-05 -3.75172e-06
-3.02956e-07 5.2837e-05 -1.19845e-05
-5.29119e-07 8.1133e-05 -1.8804e-05
-0.000723926 -7.29724e-06 2.05231e-05
-0.000735873 -7.04664e-06 1.21767e-05
-0.000779829 -6.81545e-06 -4.15788e-06
7.55582e-08 8.16313e-05 -1.76853e-05
1.71873e-07 8.34384e-05 -1.83446e-05
1.08093e-07 7.69608e-05 -1.69346e-05
-0.000793617 -2.17862e-06 -6.00776e-06
-0.000808888 -2.2843e-06 -2.73101e-06
-0.000823968 -3.08821e-06 -1.19625e-07
-0.000748326 -5.99516e-06 1.89692e-06
-3.72586e-07 9.63703e-05 -2.29014e-05
-1.26087e-07 9.84751e-05 -2.38619e-05
-1.29456e-07 9.13658e-05 -2.21241e-05
3.76886e-08 7.01063e-06 -8.39635e-07
-4.85153e-08 -8.78377e-06 9.01676e-07
2.01662e-08 3.86661e-06 -4.71117e-07
9.81789e-09 2.28423e-06 -2.79059e-07
7.20913e-09 2.11285e-06 -2.57272e-07
-4.9562e-08 -9.77461e-06 1.009e-06
-3.94899e-08 -9.26107e-06 9.557e-07
-2.65073e-08 -7.59748e-06 7.80797e-07
-0.00084656 -1.33998e-07 9.62011e-07
-0.000860595 -7.69116e-07 -9.27289e-07
-0.00087251 -1.42641e-06 -2.8911e-06
-1.38183e-07 -2.45003e-05 2.20697e-06
-1.14862e-07 -2.33126e-05 2.09223e-06
-8.78368e-08 -2.06885e-05 1.84868e-06
-6.17893e-08 -1.7196e-05 1.52771e-06
-0.000813527 -1.59993e-07 1.36982e-07
-0.000827325 -5.152e-07 -1.06417e-06
-0.000838988 -8.81902e-07 -2.30846e-06
-2.14212e-07 -3.993e-05 3.35095e-06
-1.7471e-07 -3.65585e-05 3.03476e-06
-1.3437e-07 -3.18483e-05 2.61814e-06
-9.78632e-08 -2.65707e-05 2.16409e-06
-0.000769013 -1.01885e-07 -1.71291e-07
-0.000782382 -2.38341e-07 -6.99703e-07
-0.000793647 -3.78717e-07 -1.24453e-06
1.01124e-08 2.8094e-06 -3.49848e-07
1.09474e-08 3.77204e-06 -4.7105e-07
1.00776e-08 4.53836e-06 -5.64608e-07
-1.87495e-08 -5.37773e-06 5.62393e-07
-9.09394e-09 -3.17589e-06 3.32248e-07
-3.0945e-09 -1.37145e-06 1.42879e-07
-0.000882086 3.18068e-07 1.99225e-06
-0.000890448 -1.31477e-07 4.31544e-07
-0.000897559 -5.76815e-07 -1.08079e-06
-4.59538e-08 -1.34763e-05 1.2079e-06
-2.88601e-08 -1.006e-05 8.98798e-07
-1.69632e-08 -7.23937e-06 6.43331e-07
-0.000848541 4.78167e-08 1.07665e-06
-0.000856742 -1.68914e-07 9.34088e-08
-0.00086372 -3.81673e-07 -8.52076e-07
-7.20141e-08 -2.14058e-05 1.73724e-06
-4.88075e-08 -1.68263e-05 1.35693e-06
-3.19446e-08 -1.30337e-05 1.0444e-06
-0.000803007 -2.96946e-08 2.84245e-07
-0.000810973 -1.12188e-07 -1.30951e-07
-0.000817773 -1.92519e-07 -5.26979e-07
1.1526e-07 2.25832e-05 -3.24988e-06
8.82109e-08 1.73104e-05 -2.55194e-06
5.54671e-08 1.36506e-05 -2.02114e-06
3.56651e-08 1.16523e-05 -1.71991e-06
-0.000868864 4.30943e-07 1.45399e-06
-0.000882912 -7.38998e-07 -5.06594e-08
-0.000894862 -1.95523e-06 -1.64077e-06
1.75176e-07 3.78611e-05 -6.42715e-06
1.85762e-07 5.25382e-05 -1.02297e-05
1.45688e-07 3.05166e-05 -5.33247e-06
9.05423e-08 2.48317e-05 -4.36406e-06
5.35766e-08 2.10387e-05 -3.68697e-06
-0.000880099 9.34345e-07 1.88724e-06
-0.000894144 -6.92335e-07 8.19261e-07
-0.00090615 -2.39388e-06 -3.88133e-07
1.85641e-07 4.3262e-05 -8.71159e-06
1.13039e-07 3.56531e-05 -7.22596e-06
6.25597e-08 3.01373e-05 -6.09067e-06
-0.000877557 1.71257e-06 2.36761e-06
-0.000891362 -3.16545e-07 1.63062e-06
-0.000903244 -2.45436e-06 6.64966e-07
-0.0008631 1.92103e-06 2.64071e-06
-0.000876537 2.15237e-07 2.62618e-06
-0.000888079 -2.34002e-06 1.47015e-06
3.94512e-08 1.08275e-05 -1.63846e-06
2.98308e-08 1.05597e-05 -1.60483e-06
2.08305e-08 1.03058e-05 -1.56055e-06
-0.000903911 9.87212e-07 2.27528e-06
-0.000912231 4.03707e-08 9.53239e-07
-0.000919308 -9.06463e-07 -3.04775e-07
6.70858e-08 1.87056e-05 -3.36115e-06
4.60697e-08 1.72082e-05 -3.10917e-06
2.84066e-08 1.59322e-05 -2.86863e-06
-0.000914605 1.81949e-06 2.4801e-06
-0.000922935 4.28176e-07 1.48591e-06
-0.00093002 -9.6921e-07 5.46846e-07
-0.000911281 1.90337e-06 2.3607e-06
9.14378e-08 2.63372e-05 -5.46328e-06
5.97477e-08 2.3635e-05 -4.9349e-06
3.41766e-08 2.13545e-05 -4.44458e-06
-0.000919082 9.43488e-07 1.99157e-06
-0.0009261 -8.55928e-07 9.29341e-07
-0.000895436 2.07957e-06 2.34471e-06
-0.000902728 1.6239e-06 3.01215e-06
-0.000909511 -5.96859e-07 1.39452e-06
-0.00090354 -5.27295e-07 8.33095e-07
1.29187e-08 4.86428e-06 -6.10109e-07
9.92492e-09 4.70024e-06 -5.93653e-07
6.48442e-09 4.12299e-06 -5.209e-07
-3.24058e-10 -1.29719e-07 1.35724e-08
1.11636e-09 5.60546e-07 -5.89118e-08
1.21268e-09 8.13314e-07 -8.54619e-08
-0.000908375 -4.66622e-07 -6.72284e-07
-0.000912537 -9.85785e-07 -2.09174e-06
-0.000915857 -1.51698e-06 -3.58482e-06
-1.20051e-08 -5.09791e-06 4.53408e-07
-6.73965e-09 -3.5637e-06 3.17219e-07
-3.56536e-09 -2.48642e-06 2.2101e-07
-0.000869558 -2.1739e-08 3.01071e-07
-0.000874555 -2.72982e-07 -6.21928e-07
-0.0008787 -5.229e-07 -1.5137e-06
-0.000882013 -7.7973e-07 -2.44894e-06
-2.25397e-08 -1.00261e-05 8.00484e-07
-1.40809e-08 -7.67058e-06 6.10127e-07
-8.26743e-09 -5.78252e-06 4.58199e-07
-0.000823567 -1.12478e-08 4.55289e-08
-0.000828508 -1.13397e-07 -3.49736e-07
-0.000832625 -2.15199e-07 -7.28511e-07
-0.000835927 -3.2038e-07 -1.12679e-06
4.40696e-09 3.26046e-06 -4.08224e-07
1.82344e-09 2.23186e-06 -2.8074e-07
3.19504e-10 1.12781e-06 -1.41634e-07
5.61228e-13 -2.24332e-09 2.79487e-10
9.60138e-10 7.74633e-07 -8.08261e-08
4.28387e-10 5.73017e-07 -5.99165e-08
7.64224e-11 2.97388e-07 -3.10293e-08
7.93543e-13 -3.4036e-09 3.52824e-10
-0.000918312 3.81561e-07 1.79151e-06
-0.000919989 -2.12689e-07 2.80733e-07
-0.000920828 -8.17139e-07 -1.28148e-06
-1.99912e-09 -1.70312e-06 1.50797e-07
-7.84927e-10 -1.08042e-06 9.55755e-08
-1.48751e-10 -5.29533e-07 4.67088e-08
4.53871e-13 -2.76954e-09 2.43082e-10
-0.000884476 1.20133e-07 9.38029e-07
-0.000886141 -1.71082e-07 1.10264e-07
-0.000886971 -4.68671e-07 -7.54374e-07
-4.66382e-09 -4.18461e-06 3.30532e-07
-1.96367e-09 -2.74081e-06 2.15963e-07
-4.37059e-10 -1.3639e-06 1.0721e-07
6.41285e-13 -8.60312e-09 6.74591e-10
-0.000838409 4.66666e-08 4.00711e-07
-0.000840073 -7.68575e-08 6.54921e-08
-0.000840908 -2.02976e-07 -2.85766e-07
-0.000925195 -7.4748e-07 -7.06153e-07
2.7525e-08 9.74161e-06 -1.49189e-06
1.93134e-08 8.75171e-06 -1.35226e-06
1.17465e-08 7.37192e-06 -1.14015e-06
-0.00092965 -4.94632e-07 -9.57e-07
-0.000933742 -1.56119e-06 -1.82869e-06
-0.000937016 -2.64573e-06 -2.79185e-06
-0.000935815 -9.01669e-07 -2.5285e-06
-0.000931887 -1.18914e-06 -1.88652e-07
-0.000915138 -1.27654e-06 1.8262e-06
4.26607e-08 1.44765e-05 -2.63346e-06
2.872e-08 1.26644e-05 -2.32785e-06
1.67365e-08 1.04951e-05 -1.93189e-06
-0.000939832 -5.37413e-07 -1.18234e-06
-0.000943802 -2.07995e-06 -1.69046e-06
-0.000946965 -3.64597e-06 -2.31047e-06
5.83877e-08 1.90205e-05 -3.99864e-06
3.84636e-08 1.64053e-05 -3.48637e-06
2.19258e-08 1.34725e-05 -2.86621e-06
-0.000935221 -4.2943e-07 -4.93776e-07
-0.000939027 -2.42296e-06 -1.14945e-06
-0.00094205 -4.44435e-06 -1.93019e-06
-0.000917893 -2.63885e-07 8.97639e-07
-0.000921473 -2.64239e-06 -3.01215e-07
-0.000924311 -5.05364e-06 -1.63164e-06
8.52865e-09 5.70846e-06 -8.74415e-07
3.42346e-09 3.86836e-06 -5.96326e-07
5.39013e-10 1.9466e-06 -2.99719e-07
1.55152e-12 -4.68402e-09 7.1488e-10
-0.00093938 9.57257e-07 2.01031e-06
-0.000941058 -1.92515e-07 6.97456e-07
-0.000941903 -1.35628e-06 -6.64687e-07
1.30375e-08 8.05297e-06 -1.47289e-06
5.10984e-09 5.43146e-06 -9.99953e-07
7.19054e-10 2.72849e-06 -5.01301e-07
1.88584e-12 -4.54855e-09 8.26773e-10
-0.00094916 1.62124e-06 2.27321e-06
-0.000950796 -6.73674e-10 1.09759e-06
-0.000951632 -1.6408e-06 -1.2488e-07
1.77217e-08 1.02813e-05 -2.1766e-06
6.8438e-09 6.91451e-06 -1.47405e-06
8.93899e-10 3.46961e-06 -7.3779e-07
2.36254e-12 -4.96368e-09 1.04279e-09
-0.000944076 2.10165e-06 2.66991e-06
-0.00094566 8.99729e-08 1.54203e-06
-0.000946481 -1.94744e-06 3.58726e-07
-0.000926164 2.43338e-06 2.76915e-06
-0.000927672 8.31944e-08 1.37756e-06
-0.000928463 -2.29715e-06 -7.99668e-08
-3.66724e-07 9.18873e-05 -2.35449e-05
-1.64024e-07 6.21025e-05 -1.70473e-05
-0.00075233 9.05221e-07 2.84541e-06
-0.000761789 3.40889e-06 5.71978e-06
-0.000770321 3.48452e-06 7.52453e-06
-7.06213e-08 7.76538e-05 -2.06887e-05
-7.90209e-08 6.49717e-05 -1.74425e-05
-8.23707e-08 5.48179e-05 -1.46871e-05
-0.000800193 2.37196e-06 1.83281e-06
-0.000811724 2.54296e-06 5.45014e-06
-0.00082184 3.69154e-07 6.18281e-06
-3.45805e-08 5.30752e-05 -1.49044e-05
-2.17533e-08 4.59934e-05 -1.30021e-05
-1.77983e-08 4.00703e-05 -1.12712e-05
-0.000776685 -2.01841e-06 3.78644e-06
-0.000780754 4.89714e-07 4.58832e-06
-0.000785896 3.91492e-07 6.07747e-06
4.32402e-08 4.69893e-05 -1.293e-05