# vtk DataFile Version 3.0
vtk output
ASCII
DATASET POLYDATA
POINTS 2323 float
0.000382297 0.0486823 0.0329508
0.0203869 0.048852 0.0322885
0.0403879 0.0490173 0.0316207
0.0603859 0.0491703 0.0309916
0.0104773 0.0585196 0.0344525
0.03048 0.0587171 0.033684
0.0504786 0.0589071 0.0329309
0.000198248 0.0292451 0.0293353
0.0202007 0.0293526 0.0289011
0.0402016 0.0294567 0.0284649
0.0602013 0.0295525 0.0280546
0.01027 0.0390764 0.0310794
0.0302716 0.0392146 0.0305122
0.0502714 0.0393472 0.0299579
0.0803766 0.0493332 0.0304235
0.100368 0.0494537 0.0299601
0.120357 0.0495488 0.0295969
0.0704698 0.0591088 0.0322282
0.0904595 0.0592672 0.0316392
0.110447 0.0593981 0.0311583
0.0801982 0.0296459 0.0276922
0.100194 0.0297222 0.027387
0.120189 0.0297827 0.027146
0.0702684 0.0394773 0.0294468
0.0902642 0.039588 0.0290105
0.110259 0.0396798 0.0286531
0.00058603 0.0680722 0.0363537
0.0205933 0.0683019 0.035533
0.0405932 0.0685289 0.0347094
0.0605871 0.0687421 0.0339374
0.00106115 0.106789 0.0422136
0.0210829 0.107116 0.0413892
0.0410886 0.107448 0.0405471
0.0610799 0.107771 0.0397409
0.0112117 0.11665 0.0433337
0.0312294 0.117002 0.04256
0.0512293 0.117353 0.0417878
0.00131863 0.126138 0.0446994
0.0213514 0.126511 0.0440665
0.041363 0.126885 0.0434007
0.061355 0.127245 0.0427422
0.000811009 0.0874312 0.0394576
0.020824 0.0877167 0.0385766
0.0408254 0.0880021 0.0376878
0.0608167 0.0882741 0.036849
0.0109449 0.0972808 0.0406512
0.0309544 0.0975924 0.0397606
0.050951 0.0978991 0.0388862
0.0106937 0.0779022 0.037736
0.0306978 0.0781614 0.0368524
0.0506931 0.0784127 0.0359929
0.0805752 0.0689574 0.033213
0.10056 0.0691345 0.0326286
0.120542 0.0692757 0.0321771
0.0813325 0.127633 0.0420919
0.101291 0.127935 0.041563
0.121239 0.128187 0.0411181
0.0810571 0.108098 0.0389643
0.101025 0.108372 0.0383432
0.120986 0.108599 0.0378465
0.0712114 0.117715 0.0410149
0.0911798 0.118028 0.0403765
0.111138 0.118297 0.0398416
0.0808005 0.0885449 0.0360488
0.100778 0.0887755 0.0354103
0.12075 0.0889619 0.0349097
0.0709362 0.098204 0.0380326
0.0909125 0.0984774 0.0373234
0.110882 0.0987074 0.0367422
0.0706826 0.0786541 0.0351649
0.0906658 0.0788805 0.034468
0.110644 0.0790668 0.0339029
0.140333 0.049581 0.0291527
0.160316 0.049657 0.0289789
0.180299 0.0497163 0.0288611
0.13042 0.0594668 0.0306006
0.1504 0.0595696 0.0303632
0.170379 0.0596509 0.0301985
0.140179 0.0297903 0.0268672
0.160172 0.0298343 0.0267503
0.180164 0.0298671 0.0266668
0.130247 0.0397189 0.0282541
0.150237 0.0397855 0.0280746
0.170227 0.0398372 0.0279454
0.200278 0.0497832 0.0286471
0.220259 0.0498184 0.0286596
0.240241 0.0498481 0.028661
0.190354 0.0597378 0.0298963
0.210331 0.0597842 0.0299102
0.230308 0.0598232 0.0299164
0.200152 0.0299114 0.0264959
0.220143 0.0299303 0.0265059
0.240136 0.0299466 0.0264948
0.190214 0.0398981 0.0276872
0.210201 0.0399266 0.0276974
0.230189 0.0399508 0.0276906
0.141156 0.128539 0.0404594
0.161079 0.128728 0.0402978
0.181002 0.128876 0.0402005
0.140919 0.108834 0.037121
0.160861 0.109008 0.0369028
0.180802 0.109146 0.0367708
0.13107 0.118588 0.0390443
0.151004 0.118793 0.0387978
0.170937 0.118958 0.0386408
0.1407 0.0890952 0.0341785
0.160659 0.0892392 0.0339334
0.180616 0.0893525 0.0337779
0.130831 0.0988949 0.035921
0.150783 0.0990708 0.0356249
0.170733 0.0992108 0.0354288
0.140503 0.069337 0.0316073
0.160474 0.0694491 0.0313667
0.180444 0.0695362 0.03121
0.130611 0.0791767 0.0332001
0.150578 0.07932 0.0328921
0.170543 0.0794332 0.0326835
0.200923 0.129016 0.0399944
0.220852 0.1291 0.0400457
0.240783 0.129166 0.0400836
0.200742 0.10928 0.0365528
0.220687 0.109367 0.0365922
0.240632 0.109437 0.0366324
0.190866 0.119115 0.038353
0.210802 0.119215 0.0383987
0.230739 0.119295 0.0384428
0.200572 0.0894654 0.0335428
0.220531 0.0895367 0.0335554
0.24049 0.0895944 0.0335718
0.190681 0.0993461 0.0351191
0.210633 0.0994316 0.03513
0.230585 0.0995008 0.0351448
0.200415 0.069626 0.0309732
0.220387 0.0696814 0.0309731
0.240357 0.0697257 0.0309758
0.190507 0.0795439 0.0323683
0.210473 0.0796137 0.0323603
0.230438 0.0796701 0.0323577
0.0114703 0.135942 0.0458669
0.0314987 0.136346 0.0453407
0.0515034 0.136747 0.0448035
0.00156139 0.145388 0.0469956
0.0216102 0.145824 0.0466565
0.0416322 0.146266 0.0462911
0.0616271 0.146656 0.0459055
0.0117263 0.155223 0.0482058
0.0317699 0.155677 0.0480235
0.0517832 0.156133 0.0478128
0.00182819 0.16472 0.0490064
0.0218961 0.16521 0.0490895
0.0419309 0.165712 0.0491328
0.0619327 0.166208 0.0491249
0.0120097 0.174661 0.0502864
0.0320681 0.175189 0.0506157
0.0520904 0.175724 0.0508778
0.00211464 0.184193 0.050654
0.0221953 0.184755 0.0513389
0.0422374 0.185333 0.0519565
0.0622422 0.185912 0.0524498
0.0714819 0.137124 0.0442157
0.0914411 0.13747 0.0437378
0.111386 0.137767 0.0433254
0.0815874 0.14703 0.0454808
0.101533 0.147395 0.0451463
0.121464 0.14771 0.0448692
0.0717571 0.156533 0.0475447
0.0917078 0.156939 0.0473153
0.111638 0.157297 0.0471081
0.0818872 0.166597 0.049087
0.101823 0.167025 0.0490217
0.121739 0.167402 0.0489414
0.0720637 0.176136 0.0511148
0.0920092 0.176621 0.0512554
0.111929 0.177062 0.051328
0.0821908 0.186322 0.0529437
0.102117 0.186828 0.0532395
0.122022 0.187289 0.0534068
0.0122903 0.194159 0.0522066
0.0323538 0.194763 0.0532129
0.0523727 0.195346 0.054085
0.00239667 0.203689 0.0520969
0.0224779 0.204324 0.0535312
0.00272333 0.223456 0.0530218
0.0125837 0.213826 0.0537573
0.0128578 0.23369 0.0550356
0.00299394 0.243299 0.0537439
0.0130382 0.253686 0.0561717
0.0425125 0.204951 0.05485
0.0625195 0.205622 0.055934
0.0227653 0.224159 0.0553524
0.0427766 0.224917 0.057497
0.0627635 0.22569 0.0592908
0.0326256 0.214481 0.0555579
0.05264 0.215186 0.0571318
0.0328544 0.234476 0.0577774
0.0229692 0.244152 0.0571209
0.0528304 0.235301 0.0602249
0.0429237 0.245077 0.0602632
0.0628696 0.245989 0.0629427
0.0723454 0.195804 0.0548579
0.0922829 0.196348 0.0554835
0.112194 0.196853 0.0559146
0.0824588 0.206112 0.0570172
0.102377 0.206659 0.0577819
0.122275 0.207174 0.0582655
0.0726035 0.215806 0.0586062
0.082674 0.226315 0.0611175
0.102576 0.226907 0.0623422
0.092523 0.216367 0.0597676
0.112424 0.216909 0.0605638
0.0727428 0.235985 0.0625845
0.122437 0.22739 0.0632905
0.0926133 0.236573 0.0644756
0.131319 0.138169 0.0426486
0.151234 0.138388 0.042466
0.171142 0.138539 0.0423479
0.191053 0.138684 0.0422965
0.210968 0.138798 0.0422926
0.230887 0.138887 0.0423229
0.141394 0.148029 0.0443736
0.161293 0.148246 0.0442774
0.181191 0.148416 0.0442428
0.201092 0.148546 0.0442588
0.220997 0.148645 0.0443136
0.240909 0.14872 0.0443969
0.13157 0.157638 0.0466893
0.151461 0.157898 0.0466165
0.171347 0.158105 0.0466003
0.191233 0.158262 0.0466365
0.211124 0.15838 0.046716
0.23102 0.158467 0.0468279
0.141638 0.167607 0.0487014
0.161516 0.167864 0.0487196
0.18139 0.168066 0.0487834
0.131821 0.17724 0.0511922
0.151693 0.177549 0.0512658
0.171559 0.177802 0.0513648
0.141881 0.187395 0.0534793
0.16174 0.187701 0.0536288
0.181595 0.187954 0.0537851
0.201273 0.168202 0.0489061
0.221156 0.168306 0.0490471
0.241047 0.168381 0.0492195
0.191435 0.177961 0.0515247
0.211303 0.178085 0.0517038
0.23118 0.178171 0.0519306
0.201465 0.18799 0.0540318
0.221328 0.188092 0.054262
0.241201 0.18816 0.0545444
0.132054 0.197092 0.0560522
0.151913 0.197447 0.0562748
0.171764 0.197747 0.0564596
0.142095 0.207429 0.0585621
0.161942 0.207768 0.0588698
0.181784 0.208058 0.0591093
0.191627 0.19776 0.0567622
0.211479 0.197866 0.0569802
0.231339 0.197926 0.0572613
0.201645 0.207931 0.059486
0.221495 0.208002 0.0597683
0.241355 0.208029 0.0601193
0.132242 0.217271 0.0611649
0.152094 0.21764 0.0615951
0.171936 0.217961 0.0618905
0.191792 0.217858 0.0623944
0.211635 0.21792 0.0626376
0.231486 0.217928 0.0629579
0.142241 0.227669 0.0640447
0.162086 0.228039 0.0644572
0.181927 0.228368 0.0647131
0.201779 0.228037 0.0653363
0.260228 0.0499024 0.0284797
0.280209 0.0499317 0.0284822
0.300189 0.0499555 0.0284764
0.250291 0.0598911 0.0297364
0.270268 0.0599271 0.0297414
0.290244 0.0599571 0.0297372
0.310219 0.0599812 0.0297242
0.26013 0.0299684 0.0264042
0.280119 0.0299892 0.026398
0.300107 0.0300045 0.0263838
0.250184 0.0399793 0.0275856
0.270168 0.0400082 0.0275769
0.290153 0.0400311 0.0275602
0.310138 0.0400481 0.0275364
0.320172 0.0499822 0.0284678
0.34015 0.050006 0.02847
0.360129 0.0500242 0.0284683
0.330196 0.0600128 0.0297201
0.350171 0.0600347 0.0297173
0.370145 0.0600505 0.0297102
0.3201 0.0300218 0.0263682
0.340089 0.0300391 0.0263613
0.36008 0.0300506 0.0263513
0.330127 0.0400729 0.0275216
0.350113 0.0400895 0.0275082
0.370101 0.0400998 0.0274921
0.260714 0.129316 0.0399678
0.280646 0.129339 0.0400482
0.30058 0.129357 0.0401041
0.260586 0.109549 0.0364031
0.280531 0.109576 0.0364492
0.300475 0.109598 0.0364869
0.250683 0.119441 0.0382559
0.270621 0.119469 0.0383188
0.29056 0.119491 0.0383678
0.310499 0.11951 0.0384057
0.260456 0.0897483 0.0333383
0.280413 0.0897804 0.0333723
0.300369 0.0898054 0.033405
0.250544 0.0996797 0.0349421
0.270495 0.0997154 0.0349845
0.290446 0.0997438 0.0350212
0.310396 0.099765 0.0350547
0.260335 0.0698303 0.0307344
0.280305 0.0698648 0.0307473
0.300273 0.0698907 0.0307646
0.25041 0.0797919 0.0321369
0.270375 0.0798334 0.0321495
0.290338 0.0798659 0.0321641
0.310301 0.0798896 0.0321817
0.320521 0.129378 0.040136
0.340458 0.12939 0.0401785
0.360394 0.129393 0.0402187
0.320428 0.109625 0.036508
0.340373 0.109649 0.0365453
0.360319 0.109666 0.0365884
0.330446 0.119537 0.0384342
0.350387 0.119555 0.0384753
0.370328 0.119565 0.0385208
0.320333 0.0898327 0.0334193
0.340289 0.0898614 0.0334514
0.360245 0.089881 0.0334948
0.330355 0.0997964 0.0350722
0.350306 0.0998177 0.0351103
0.370257 0.0998297 0.0351588
0.320248 0.0699176 0.030758
0.340216 0.0699505 0.0307691
0.360183 0.0699737 0.0307928
0.330272 0.079925 0.0321722
0.350235 0.0799519 0.032189
0.370197 0.0799688 0.0322178
0.380129 0.0499806 0.0283464
0.400106 0.0499926 0.0283359
0.420082 0.0499996 0.0283221
0.390141 0.0600238 0.0295863
0.410113 0.0600353 0.0295728
[...]
POINT_DATA 2323
VECTORS alpha float
2.06573e-05 0.00220361 0.000423454
1.24766e-05 0.00132747 0.000240822
6.21266e-06 0.00066629 0.000113432
3.41043e-06 0.000371519 5.91987e-05
0.000284812 1.95599e-06 -7.66107e-06
0.00043946 2.92062e-06 -1.19499e-05
0.000502107 3.05829e-06 -1.2852e-05
1.75652e-05 0.00245647 0.000508438
1.04665e-05 0.00146436 0.000282801
5.11887e-06 0.000720908 0.000129055
2.755e-06 0.000392065 6.49004e-05
0.000253801 9.37606e-07 -3.8193e-06
0.000389978 1.37316e-06 -5.8957e-06
0.000443587 1.40857e-06 -6.27757e-06
1.88467e-06 0.00021186 3.16976e-05
1.10858e-06 0.000128342 1.81759e-05
7.64529e-07 9.14151e-05 1.2351e-05
0.000526497 2.97192e-06 -1.15705e-05
0.000534459 2.48188e-06 -9.77886e-06
0.000538012 1.91001e-06 -7.59185e-06
1.49687e-06 0.000217947 3.33631e-05
8.83625e-07 0.000130996 1.87621e-05
6.36999e-07 9.63867e-05 1.30452e-05
0.000463236 1.39323e-06 -5.63649e-06
0.000468716 1.14878e-06 -4.75356e-06
0.000470972 8.75231e-07 -3.69272e-06
2.13964e-05 0.00192112 0.000345101
1.32212e-05 0.00117302 0.0002032
6.78188e-06 0.000603044 0.000100306
3.84081e-06 0.000346361 5.5194e-05
1.79431e-05 0.00129147 0.000196498
1.18603e-05 0.000823839 0.000130165
6.66952e-06 0.000455326 7.43236e-05
4.1527e-06 0.000283738 4.75063e-05
0.00035146 5.29515e-06 -1.17877e-05
0.000547554 8.37138e-06 -1.88996e-05
0.000631967 9.35955e-06 -2.09706e-05
1.40453e-05 0.000952217 0.000130114
9.71845e-06 0.000633456 9.49738e-05
5.83508e-06 0.000372616 6.05978e-05
3.87152e-06 0.000246979 4.29216e-05
2.05652e-05 0.00161574 0.000268655
1.30975e-05 0.00100441 0.000166225
6.9964e-06 0.000532416 8.74016e-05
4.13374e-06 0.000316955 5.1439e-05
0.00033375 4.31364e-06 -1.24393e-05
0.000518429 6.6913e-06 -1.95549e-05
0.000596525 7.32166e-06 -2.12399e-05
0.000311532 3.16568e-06 -1.08624e-05
0.00048241 4.8043e-06 -1.68472e-05
0.000553284 5.12218e-06 -1.80169e-05
2.18017e-06 0.000203311 3.10992e-05
1.28591e-06 0.000124389 1.83742e-05
8.48753e-07 8.56473e-05 1.22682e-05
2.52937e-06 0.000164298 3.01361e-05
1.56431e-06 0.000105704 2.01414e-05
9.17081e-07 6.54301e-05 1.27664e-05
2.5568e-06 0.000179358 3.06137e-05
1.54741e-06 0.000112862 1.95367e-05
9.41161e-07 7.22834e-05 1.25942e-05
0.000668834 9.50567e-06 -1.98754e-05
0.00068362 8.42944e-06 -1.72953e-05
0.000690433 6.98551e-06 -1.39298e-05
2.42938e-06 0.000192383 3.08223e-05
1.4467e-06 0.00011911 1.88786e-05
9.15609e-07 7.90915e-05 1.23845e-05
0.000629655 7.56225e-06 -2.0127e-05
0.00064233 6.54652e-06 -1.71288e-05
0.000648248 5.26694e-06 -1.34213e-05
0.000582358 5.49796e-06 -1.72577e-05
0.000592833 4.62486e-06 -1.451e-05
0.000597752 3.58146e-06 -1.11961e-05
6.2588e-07 8.10821e-05 1.05191e-05
6.04969e-07 8.27393e-05 1.05064e-05
6.00905e-07 8.71776e-05 1.0912e-05
0.000543407 2.05888e-06 -4.53594e-06
0.000553201 1.64374e-06 -3.10648e-06
0.000566992 1.28587e-06 -1.95184e-06
5.68317e-07 9.03162e-05 1.15485e-05
5.7948e-07 9.58568e-05 1.18971e-05
5.91974e-07 0.000102561 1.24681e-05
0.000475632 8.91888e-07 -1.99941e-06
0.000484701 6.83292e-07 -1.43047e-06
0.000497649 4.9579e-07 -9.58065e-07
5.75303e-07 8.93269e-05 1.09823e-05
5.24868e-07 8.73716e-05 1.07173e-05
4.55373e-07 8.15939e-05 1.00022e-05
0.000583157 8.41849e-07 1.90305e-06
0.000599996 7.28277e-07 1.45253e-06
0.000615948 6.22505e-07 9.6452e-07
5.7702e-07 0.000105168 1.24393e-05
5.27819e-07 0.00010225 1.20055e-05
4.57016e-07 9.47114e-05 1.10724e-05
0.000512809 2.61858e-07 1.78984e-06
0.000528479 2.36933e-07 1.09034e-06
0.000543183 2.02041e-07 4.27347e-07
5.20191e-07 4.03072e-05 8.00497e-06
3.15448e-07 2.6674e-05 5.3928e-06
2.2885e-07 2.1223e-05 4.33929e-06
6.00595e-07 5.01352e-05 8.76229e-06
4.41861e-07 3.9943e-05 7.04212e-06
3.74391e-07 3.68292e-05 6.52932e-06
0.000696629 6.60149e-06 -8.07005e-06
0.000706379 5.36424e-06 -5.05461e-06
0.000719668 4.29002e-06 -2.6489e-06
6.48412e-07 6.05854e-05 9.33794e-06
5.405e-07 5.42325e-05 8.34955e-06
4.96164e-07 5.36712e-05 8.2553e-06
0.000654525 5.13018e-06 -8.8648e-06
0.000664849 4.13317e-06 -5.83543e-06
0.000679074 3.27629e-06 -3.4238e-06
6.54294e-07 7.11385e-05 9.90995e-06
5.94936e-07 6.88072e-05 9.4609e-06
5.73356e-07 7.08128e-05 9.64851e-06
0.000603901 3.64382e-06 -8.05748e-06
0.000614344 2.9082e-06 -5.45601e-06
0.000628828 2.2756e-06 -3.36167e-06
1.98671e-07 2.03875e-05 4.18844e-06
1.87565e-07 2.12018e-05 4.37628e-06
1.74782e-07 2.16925e-05 4.47986e-06
3.39279e-07 3.67776e-05 6.5312e-06
3.11911e-07 3.70436e-05 6.60063e-06
2.78298e-07 3.61684e-05 6.44867e-06
0.000735414 3.22391e-06 2.96926e-06
0.000751911 2.66455e-06 2.84061e-06
0.000767849 2.2225e-06 2.4941e-06
4.6024e-07 5.44689e-05 8.35784e-06
4.21032e-07 5.41397e-05 8.30937e-06
3.7069e-07 5.17758e-05 7.93495e-06
0.000695953 2.50958e-06 1.66172e-06
0.000713605 2.07015e-06 1.67138e-06
0.000730643 1.702e-06 1.4917e-06
5.38616e-07 7.23695e-05 9.78047e-06
4.91219e-07 7.12945e-05 9.5975e-06
4.28238e-07 6.72644e-05 9.01874e-06
0.000645967 1.77698e-06 1.04597e-06
0.000663753 1.46066e-06 1.04005e-06
0.00068077 1.18031e-06 8.94031e-07
0.000364248 6.53658e-06 -8.57664e-06
0.00056918 1.03051e-05 -1.406e-05
0.000659053 1.15307e-05 -1.59804e-05
8.85862e-06 0.000599614 7.40297e-05
6.71807e-06 0.000434232 6.24763e-05
4.51376e-06 0.000284607 4.66244e-05
3.31648e-06 0.000206539 3.75551e-05
0.000372452 7.66296e-06 -3.26007e-06
0.000583969 1.22764e-05 -5.93012e-06
0.000678775 1.39951e-05 -7.47105e-06
3.58916e-06 0.000239657 2.63061e-05
3.56979e-06 0.000228916 3.14489e-05
3.04956e-06 0.000191923 3.15619e-05
2.578e-06 0.00016241 3.06896e-05
0.000374827 9.09582e-06 5.50032e-06
0.000589536 1.47633e-05 7.29946e-06
0.000687876 1.71971e-05 6.05937e-06
-1.84516e-06 -0.000123628 -1.16232e-05
2.99138e-07 1.99162e-05 2.56282e-06
1.41764e-06 9.57234e-05 1.55701e-05
1.65291e-06 0.000114681 2.21793e-05
0.000699559 1.12828e-05 -1.59169e-05
0.000716802 1.00929e-05 -1.42011e-05
0.000725022 8.45392e-06 -1.1781e-05
2.29012e-06 0.000146538 2.89951e-05
1.46019e-06 9.70348e-05 2.02868e-05
8.27417e-07 5.80468e-05 1.25722e-05
0.000723275 1.39993e-05 -8.13515e-06
0.000743817 1.29046e-05 -7.50587e-06
0.000754535 1.12106e-05 -6.25576e-06
1.94104e-06 0.000126016 2.65865e-05
1.27374e-06 8.61393e-05 1.95473e-05
6.87985e-07 4.91113e-05 1.16826e-05
0.000735976 1.73428e-05 5.49271e-06
0.000760128 1.64686e-05 3.5104e-06
0.000774163 1.49718e-05 1.6761e-06
1.41086e-06 0.000102076 2.25361e-05
9.50393e-07 7.21148e-05 1.7356e-05
4.69667e-07 3.74116e-05 9.509e-06
0.000371668 1.04091e-05 1.73878e-05
0.00058638 1.71224e-05 2.50761e-05
0.000686969 2.02725e-05 2.37473e-05
-7.599e-06 -0.000486669 -3.61691e-05
-2.84295e-06 -0.000191313 -2.20314e-05
-1.15504e-05 -0.000845047 -4.81237e-05
0.00036155 1.15789e-05 3.08373e-05
0.000343632 1.33147e-05 4.5123e-05
-1.16031e-05 -0.00119227 -4.9977e-05
0.000318086 1.54476e-05 5.83538e-05
-5.2201e-08 -3.77109e-06 -5.83946e-07
8.15652e-07 6.3141e-05 1.20532e-05
-4.54781e-06 -0.000401644 -4.1616e-05
-9.29372e-07 -0.00010438 -1.5595e-05
6.54733e-08 9.43939e-06 1.79943e-06
0.000571573 1.91336e-05 4.46277e-05
0.000671652 2.30598e-05 4.34878e-05
0.000542999 2.15605e-05 6.63799e-05
-3.15578e-06 -0.000606079 -5.67137e-05
0.000638246 2.54199e-05 6.59221e-05
-1.8902e-07 -0.000202465 -2.90652e-05
1.01355e-07 -4.31222e-05 -8.1245e-06
0.000738151 1.96817e-05 2.4303e-05
0.000766246 1.91154e-05 1.86055e-05
0.000784459 1.79992e-05 1.23711e-05
8.73975e-07 7.40141e-05 1.65246e-05
6.00951e-07 5.39039e-05 1.32454e-05
2.3296e-07 2.15342e-05 5.61312e-06
0.000723706 2.04775e-05 4.57127e-05
2.36996e-07 4.29823e-05 9.62295e-06
1.62166e-07 3.21021e-05 7.97024e-06
0.000754526 2.01062e-05 3.45029e-05
0.000776293 1.97044e-05 2.21185e-05
0.000688103 2.25279e-05 6.4982e-05
6.49654e-09 1.43348e-06 3.83753e-07
0.000718479 2.19149e-05 4.95901e-05
0.000731606 7.61214e-06 -6.32213e-06
0.000741118 6.09252e-06 -3.83929e-06
0.000753607 5.20509e-06 -1.62329e-06
0.000768178 4.10077e-06 2.1731e-07
0.000783355 3.24552e-06 1.57264e-06
0.000797898 2.6067e-06 2.57592e-06
3.99151e-07 3.06174e-05 6.9776e-06
1.67383e-07 1.41859e-05 3.31436e-06
7.2364e-08 6.83518e-06 1.62433e-06
5.17482e-08 5.47058e-06 1.31473e-06
5.86171e-08 6.93559e-06 1.67803e-06
6.65062e-08 8.7766e-06 2.12905e-06
0.00076275 9.82403e-06 -2.73141e-06
0.000773079 7.92864e-06 -5.64256e-07
0.000785699 6.16771e-06 1.53615e-06
0.000799723 4.65476e-06 3.36437e-06
0.000813797 3.44537e-06 4.80304e-06
0.000826776 2.53902e-06 5.84225e-06
2.56667e-07 2.02029e-05 5.10656e-06
1.94953e-08 1.69769e-06 4.4267e-07
-7.07615e-08 -6.87402e-06 -1.83077e-06
0.000785166 1.21898e-05 3.00977e-06
0.000797748 1.01819e-05 4.01625e-06
0.000812098 8.31402e-06 5.41978e-06
8.41501e-08 7.4516e-06 2.02823e-06
-1.3053e-07 -1.26601e-05 -3.55749e-06
-2.06469e-07 -2.19636e-05 -6.29206e-06
-7.47899e-08 -8.16775e-06 -2.21088e-06
-4.51135e-08 -5.55329e-06 -1.52152e-06
-1.43179e-08 -1.97954e-06 -5.4616e-07
0.000827323 5.2803e-06 7.03061e-06
0.000842184 3.73039e-06 9.24442e-06
0.000855511 2.58191e-06 1.1115e-05
-1.88746e-07 -2.26727e-05 -6.67848e-06
-1.37031e-07 -1.84222e-05 -5.50292e-06
-8.5044e-08 -1.26869e-05 -3.81637e-06
0.000799451 1.43837e-05 9.80771e-06
0.000815794 1.24213e-05 8.27802e-06
0.000833603 1.06488e-05 7.63186e-06
-7.76416e-08 -9.37794e-06 -2.68813e-06
-2.42826e-07 -3.08576e-05 -9.07985e-06
-3.0798e-07 -4.0549e-05 -1.2067e-05
0.000851861 5.0112e-06 8.26612e-06
0.000869355 2.92839e-06 1.13225e-05
0.00088477 1.38256e-06 1.40305e-05
-2.6694e-07 -4.0096e-05 -1.24652e-05
-2.05889e-07 -3.36104e-05 -1.05663e-05
-1.43669e-07 -2.50586e-05 -7.89714e-06
0.000795024 1.49016e-05 1.95709e-05
0.000815511 1.31895e-05 1.41986e-05
0.000837725 1.18291e-05 1.01537e-05
0.000860566 3.47851e-06 8.84754e-06
0.000882523 8.4692e-07 1.26862e-05
0.000902168 -1.08071e-06 1.6167e-05
-9.93686e-08 -3.0931e-05 -8.9844e-06
-2.06979e-07 -5.42806e-05 -1.60816e-05
-2.95956e-07 -6.4651e-05 -1.92244e-05
-2.46109e-07 -6.29388e-05 -1.93846e-05
3.74089e-07 7.33225e-05 9.00841e-06
2.9657e-07 6.38399e-05 7.82422e-06
2.28425e-07 5.44112e-05 6.65008e-06
0.00063009 8.07011e-07 1.08955e-06
0.000642203 6.75922e-07 7.06882e-07
0.000652379 5.37064e-07 3.45224e-07
0.000660906 3.91202e-07 -3.626e-10
3.83208e-07 8.44175e-05 9.79039e-06
3.04919e-07 7.30896e-05 8.42428e-06
2.36079e-07 6.21254e-05 7.11887e-06
0.000555989 5.22091e-07 6.0687e-07
0.000566931 4.01221e-07 2.91377e-07
0.000576036 2.70146e-07 7.8219e-09
0.000583616 1.30624e-07 -2.49839e-07
1.70922e-07 4.57726e-05 5.57545e-06
1.25908e-07 3.82242e-05 4.64579e-06
9.08323e-08 3.17663e-05 3.8504e-06
0.000668115 5.52406e-07 5.0381e-07
0.000674271 3.88541e-07 2.78014e-07
0.00067952 2.16844e-07 8.49656e-08
1.78717e-07 5.22787e-05 5.95442e-06
1.32812e-07 4.37797e-05 4.96312e-06
9.673e-08 3.65372e-05 4.12395e-06
0.000590023 3.34338e-07 1.37257e-07
0.000595508 1.79565e-07 -1.33998e-08
0.000600222 1.93088e-08 -1.43555e-07
1.42941e-07 2.09653e-05 4.47767e-06
1.16614e-07 1.8875e-05 4.05936e-06
8.89499e-08 1.59016e-05 3.43355e-06
2.25062e-07 3.37767e-05 6.1992e-06
1.80849e-07 3.00494e-05 5.54506e-06
1.39022e-07 2.56507e-05 4.74802e-06
0.000782261 6.92024e-07 3.50671e-06
0.000795068 5.62858e-07 2.86297e-06
0.000806208 4.45251e-07 2.30413e-06
0.000815901 3.13197e-07 1.87962e-06
3.00085e-07 4.75523e-05 7.48982e-06
2.39835e-07 4.19999e-05 6.63706e-06
1.85123e-07 3.59892e-05 5.69459e-06
0.000746088 9.81884e-07 2.50514e-06
0.00075974 7.78048e-07 2.18864e-06
0.000771556 5.69832e-07 1.95361e-06
0.000781755 3.42592e-07 1.83448e-06
3.47746e-07 6.1025e-05 8.3372e-06
2.76373e-07 5.34849e-05 7.3066e-06
2.12912e-07 4.57171e-05 6.23655e-06
0.000696131 1.13899e-06 1.22143e-06
0.000709416 8.92449e-07 1.19016e-06
0.000720707 6.36551e-07 1.20853e-06
0.00073024 3.66156e-07 1.29022e-06
6.34314e-08 1.26471e-05 2.73724e-06
4.35057e-08 9.62476e-06 2.08623e-06
2.88882e-08 7.14343e-06 1.54705e-06
1.02621e-07 2.12046e-05 3.93636e-06
7.41161e-08 1.7163e-05 3.19383e-06
5.24986e-08 1.37563e-05 2.56085e-06
0.000824525 5.48725e-07 2.12855e-06
0.00083205 3.2078e-07 2.17826e-06
0.000838645 4.81907e-08 2.41978e-06
1.39028e-07 3.01796e-05 4.78649e-06
1.0232e-07 2.49715e-05 3.96826e-06
7.39326e-08 2.05214e-05 3.2616e-06
0.000790713 7.09301e-07 1.85005e-06
0.000798448 4.00651e-07 2.13917e-06
0.000805143 5.493e-08 2.60107e-06
1.61005e-07 3.84253e-05 5.24697e-06
1.18851e-07 3.19646e-05 4.36799e-06
8.60585e-08 2.64241e-05 3.60859e-06
0.000738407 8.7615e-07 9.49277e-07
0.000745277 5.53234e-07 1.28971e-06
0.000751068 2.07367e-07 1.73583e-06
6.71957e-08 2.62518e-05 3.17253e-06
4.56272e-08 2.13393e-05 2.57571e-06
2.89451e-08 1.68332e-05 2.02839e-06
0.000683876 3.0916e-07 -6.5329e-08
0.000687545 1.58086e-07 -2.6804e-07
0.000690467 6.15701e-09 -4.76102e-07
7.05555e-08 3.0305e-05 3.39533e-06
4.81753e-08 2.47273e-05 2.76128e-06
3.0667e-08 1.95593e-05 2.17761e-06
0.000604043 1.94625e-07 1.97982e-08
0.000607369 4.84189e-08 -1.5157e-07
0.000610044 -9.96305e-08 -3.19882e-07
1.63616e-08 1.25486e-05 1.51069e-06
7.41698e-09 8.36315e-06 1.0066e-06
1.98385e-09 4.21384e-06 5.06745e-07
0.000692649 2.23453e-07 1.70858e-07
0.000694111 7.63177e-08 -1.06821e-07
0.00069485 -7.49331e-08 -3.59208e-07
1.74282e-08 1.46074e-05 1.6231e-06
7.89891e-09 9.74834e-06 1.08181e-06
2.1029e-09 4.92152e-06 5.45518e-07
0.00061206 1.63082e-07 9.60528e-08
0.000613424 2.02661e-08 -1.32938e-07
0.000614122 -1.23619e-07 -3.55179e-07
1.54239e-08 5.29152e-06 1.17256e-06
9.84517e-09 3.96332e-06 8.79983e-07
6.1727e-09 3.00124e-06 6.666e-07
3.2614e-08 1.10222e-05 2.08501e-06
2.18867e-08 8.78072e-06 1.66466e-06
1.39835e-08 6.87978e-06 1.30497e-06
0.000844301 2.87371e-07 3.8226e-07
0.000849106 2.27072e-07 4.5441e-07
0.00085297 1.5351e-07 5.73057e-07
4.91318e-08 1.68242e-05 2.70749e-06
3.33815e-08 1.36122e-05 2.19289e-06
2.13647e-08 1.07406e-05 1.72949e-06
0.000810814 -2.36494e-08 -5.80611e-08
0.000815592 -1.57477e-07 1.61312e-07
0.000819404 -2.95941e-07 3.9687e-07
5.9723e-08 2.17416e-05 2.9829e-06
4.03625e-08 1.76054e-05 2.41517e-06
2.55385e-08 1.3857e-05 1.89853e-06
0.000755864 2.42957e-07 -2.45514e-07
0.000759784 1.1982e-08 6.46622e-08
0.000762838 -2.23315e-07 3.85681e-07
3.60656e-09 2.23043e-06 4.95781e-07
1.81317e-09 1.51965e-06 3.3785e-07
6.17319e-10 8.01369e-07 1.7796e-07
1.27477e-11 6.3407e-08 1.40466e-08
8.10505e-09 5.14886e-06 9.77454e-07
3.8905e-09 3.46637e-06 6.58755e-07
1.19418e-09 1.7742e-06 3.37002e-07
0.000855882 5.87739e-07 1.01932e-06
0.000857823 4.72894e-07 1.25507e-06
0.00085879 3.2469e-07 1.63218e-06
1.23709e-08 8.03767e-06 1.29426e-06
5.82188e-09 5.38548e-06 8.68233e-07
1.70288e-09 2.72991e-06 4.39977e-07
0.000822261 3.23065e-07 4.12646e-07
0.000824158 1.61692e-07 7.13555e-07
0.000825099 -2.32302e-08 1.11882e-06
1.46626e-08 1.03211e-05 1.41358e-06
6.71561e-09 6.87672e-06 9.43291e-07
1.84869e-09 3.46327e-06 4.75219e-07
0.000765079 4.80415e-07 -2.27646e-08
0.000766542 2.30841e-07 3.39957e-07
0.000767259 -3.29336e-08 7.72431e-07
0.000841261 1.31384e-06 2.80181e-06
0.000848928 1.53646e-06 3.34569e-06
0.000855789 1.69126e-06 4.20131e-06
0.000861927 1.77712e-06 5.36576e-06
0.000811272 7.60647e-07 3.56145e-06
0.000822722 8.95251e-07 3.03773e-06
0.000832647 1.03245e-06 2.75497e-06
6.0379e-08 9.62369e-06 2.40986e-06
5.04807e-08 9.00982e-06 2.28268e-06
3.62394e-08 7.25995e-06 1.85458e-06
2.20071e-08 4.97461e-06 1.27722e-06
1.06726e-08 2.74697e-06 7.06752e-07
3.2978e-09 9.80103e-07 2.51997e-07
0.000838382 1.344e-06 7.7244e-06
0.000847604 1.4773e-06 6.71842e-06
0.000855142 1.64631e-06 5.86924e-06
0.000861374 1.78339e-06 5.2877e-06
0.000866676 1.83944e-06 5.06118e-06
0.000871326 1.78888e-06 5.23863e-06
0.000875478 1.63043e-06 5.82367e-06
4.04043e-09 6.7401e-07 1.89436e-07
8.90411e-09 1.67562e-06 4.79643e-07
5.4795e-09 1.16782e-06 3.38865e-07
0.000867122 -7.61342e-07 1.19035e-05
0.000876016 -2.54995e-08 1.05002e-05
0.000882976 7.81186e-07 9.29496e-06
0.000888485 1.57106e-06 8.38855e-06
-4.48177e-08 -7.90389e-06 -2.41882e-06
-2.4982e-08 -5.03755e-06 -1.57621e-06
-1.79159e-08 -4.17086e-06 -1.32597e-06
-9.91158e-10 -2.3642e-07 -6.91838e-08
-6.81335e-09 -1.84741e-06 -5.43584e-07
-1.00449e-08 -3.14094e-06 -9.25494e-07
0.000893044 8.76276e-07 9.12042e-06
0.000896998 1.5451e-06 8.53661e-06
0.000900561 2.09539e-06 8.40678e-06
-1.83576e-08 -4.67062e-06 -1.50295e-06
-1.97921e-08 -5.72434e-06 -1.8606e-06
-1.99054e-08 -6.66162e-06 -2.17492e-06
0.000897714 -3.17291e-06 1.51719e-05
0.00090761 -1.84603e-06 1.30571e-05
0.000914993 -4.00552e-07 1.11443e-05
0.000920446 1.04753e-06 9.54127e-06
-8.80439e-08 -1.74676e-05 -5.64447e-06
-5.28451e-08 -1.21354e-05 -4.01202e-06
-3.47276e-08 -9.41283e-06 -3.15972e-06
0.000924518 -1.11991e-06 1.14643e-05
0.000927892 1.45259e-07 1.01954e-05
0.000930802 1.28801e-06 9.41879e-06
0.00091865 -5.4426e-06 1.74191e-05
0.000931862 -3.57849e-06 1.47522e-05
-3.12093e-08 -8.67739e-06 -2.92882e-06
-2.84011e-08 -8.97906e-06 -3.07523e-06
-2.58129e-08 -9.49456e-06 -3.27644e-06
0.000941777 -1.2407e-06 1.19173e-05
0.000949156 6.65822e-07 9.50069e-06
0.000954506 -3.39231e-06 1.14535e-05
0.000958677 -1.35727e-06 8.62861e-06
0.000961993 5.46285e-07 6.32038e-06
0.000867596 1.79503e-07 -6.04589e-08
0.000872341 6.40483e-07 4.99632e-07
0.000876236 1.06536e-06 1.20054e-06
0.000879215 1.45006e-06 2.0494e-06
0.000881231 1.79074e-06 3.05894e-06
0.000882254 2.08773e-06 4.23785e-06
-4.49899e-10 -1.64104e-07 -4.30836e-08
-1.67989e-09 -7.22526e-07 -1.90232e-07
-1.60169e-09 -8.44008e-07 -2.2257e-07
-1.03507e-09 -7.08714e-07 -1.86994e-07
-4.71652e-10 -4.64297e-07 -1.22458e-07
-1.12213e-10 -1.97776e-07 -5.20975e-08
0.000879489 9.29395e-07 1.80602e-06
0.000882806 1.24455e-06 1.95959e-06
0.000885583 1.50196e-06 2.29003e-06
0.000887751 1.71062e-06 2.7693e-06
0.000889252 1.88028e-06 3.37691e-06
0.000890047 2.02683e-06 4.08471e-06
-1.01897e-08 -3.86419e-06 -1.1565e-06
-8.94862e-09 -3.95317e-06 -1.19051e-06
-6.61714e-09 -3.54007e-06 -1.07027e-06
0.00090399 -7.86303e-07 4.09815e-06
0.000906945 5.20012e-07 3.42801e-06
0.000909487 1.76646e-06 2.96299e-06
-1.82729e-08 -7.10737e-06 -2.35499e-06
-1.54078e-08 -6.86782e-06 -2.29586e-06
-1.13825e-08 -6.04061e-06 -2.02973e-06
-3.94309e-09 -2.80066e-06 -8.48444e-07
-1.85582e-09 -1.89372e-06 -5.73745e-07
-5.04309e-10 -9.25885e-07 -2.79984e-07
0.000911531 8.60068e-07 4.96877e-06
0.000912994 2.07639e-06 4.43184e-06
0.000913786 3.26053e-06 3.99378e-06
-6.44827e-09 -4.78595e-06 -1.61671e-06
-3.05473e-09 -3.26911e-06 -1.10683e-06
-8.31273e-10 -1.62614e-06 -5.49878e-07
-3.31187e-12 6.21166e-08 2.09037e-08
-1.02885e-11 5.41106e-08 1.62984e-08
0.000933284 -1.41732e-06 4.65836e-06
0.000935527 5.56519e-07 3.32384e-06
0.00093749 2.44783e-06 2.24579e-06
0.000939047 -6.01723e-07 6.42747e-06
0.000940254 1.14146e-06 5.38381e-06
0.000940919 2.86509e-06 4.4178e-06
-2.2235e-08 -9.67501e-06 -3.3604e-06
-1.92917e-08 -9.20108e-06 -3.23037e-06
-1.49643e-08 -8.083e-06 -2.8541e-06
-8.39692e-09 -6.44414e-06 -2.27709e-06
-4.3767e-09 -4.43206e-06 -1.57268e-06
-1.45895e-09 -2.21404e-06 -7.85029e-07
0.000964017 -1.15165e-06 4.56283e-06
0.000966052 1.62466e-06 1.71649e-06
0.000967764 4.29099e-06 -8.10754e-07
0.00096897 -3.64292e-06 6.84268e-06
0.000970032 -1.1214e-06 4.15705e-06
0.000970619 1.38028e-06 1.53635e-06
-8.85544e-13 7.26349e-08 8.72132e-09
1.74283e-09 -4.07071e-06 -4.89522e-07
6.94795e-09 -8.2263e-06 -9.90128e-07
1.56761e-08 -1.24215e-05 -1.49541e-06
0.000694866 8.24702e-08 3.5487e-07
0.000694158 -6.9064e-08 1.0233e-07
0.000692722 -2.1657e-07 -1.75668e-07
6.33366e-13 1.00162e-07 1.10906e-08
1.78101e-09 -4.72593e-06 -5.23853e-07
7.27268e-09 -9.56653e-06 -1.06169e-06
1.65223e-08 -1.44471e-05 -1.60541e-06
0.000614149 1.25627e-07 3.56776e-07
0.000613503 -1.83225e-08 1.34428e-07
0.000612184 -1.61274e-07 -9.4748e-08
2.80571e-08 -1.67183e-05 -2.0146e-06
4.45432e-08 -2.1238e-05 -2.56357e-06
6.59154e-08 -2.61641e-05 -3.16209e-06
0.000690559 -8.33666e-11 4.70868e-07
0.000687645 -1.5249e-07 2.62315e-07
0.000683976 -3.04105e-07 5.905e-08
2.95148e-08 -1.9426e-05 -2.16296e-06
4.68051e-08 -2.46239e-05 -2.75003e-06
6.89898e-08 -3.02318e-05 -3.38754e-06
0.0006102 1.01054e-07 3.2109e-07
0.000607543 -4.7208e-08 1.52556e-07
0.000604219 -1.93681e-07 -1.90585e-08
4.74343e-10 -6.74142e-07 -1.50357e-07