# vtk DataFile Version 3.0
vtk output
ASCII
DATASET POLYDATA
POINTS 2121 float
0.0808606 0.0881498 0.0436505
0.100833 0.0883416 0.0432946
0.120797 0.0885108 0.0429863
0.000632135 0.0679338 0.0431869
0.0206475 0.068103 0.0427222
0.0406532 0.0682788 0.0422444
0.0606495 0.0684541 0.0417795
0.0806373 0.0686222 0.0413512
0.100618 0.0687774 0.0409775
0.120594 0.0689164 0.0406689
0.0107538 0.0777212 0.0442573
0.0307668 0.0779172 0.0437942
0.0507681 0.0781173 0.0433273
0.0707584 0.0783134 0.0428811
0.090739 0.0784984 0.0424767
0.110712 0.0786667 0.042129
0.0010781 0.106663 0.0469901
0.0211085 0.10693 0.0467986
0.0411197 0.107199 0.0465768
0.000846271 0.0872694 0.0452631
0.0208689 0.0874892 0.0448728
0.0408773 0.0877115 0.0444591
0.0608718 0.0879274 0.0440422
0.0109801 0.0970786 0.0462373
0.0309983 0.0973197 0.0459054
0.0509999 0.0975594 0.0455545
0.070986 0.097788 0.0452003
0.0909586 0.0979969 0.0448586
0.110921 0.0981794 0.0445421
0.000424182 0.0485693 0.0407971
0.0204334 0.0486972 0.0403677
0.0404368 0.0488277 0.0399308
0.0604345 0.0489557 0.0395107
0.0804272 0.0490766 0.0391289
0.100416 0.0491866 0.0388007
0.120401 0.0492838 0.038534
0.0105311 0.0583534 0.0420165
0.0305389 0.0585073 0.0415399
0.0505394 0.0586622 0.0410661
0.0705329 0.0588118 0.0406206
0.0905205 0.0589511 0.0402239
0.110504 0.0590763 0.0398891
0.000233908 0.0291781 0.038055
0.0202385 0.0292565 0.0377494
0.0402403 0.0293358 0.0374394
0.0602392 0.0294127 0.0371426
0.0802355 0.0294845 0.036874
0.10023 0.029549 0.0366444
0.120222 0.0296052 0.0364587
0.0103226 0.0389591 0.0394809
0.0303268 0.0390638 0.0390885
0.0503269 0.0391681 0.0387003
0.0703234 0.039268 0.0383373
0.0903165 0.0393598 0.038016
0.110307 0.0394415 0.0377465
0.14075 0.0886892 0.0425445
0.160698 0.0888122 0.0423825
0.180646 0.0889121 0.0422653
0.200595 0.0889927 0.0421851
0.220546 0.0890578 0.0421343
0.2405 0.0891112 0.0421075
0.140555 0.0690115 0.0402318
0.160519 0.0691141 0.040059
0.180482 0.0692006 0.0399394
0.200445 0.0692738 0.0398629
0.22041 0.0693367 0.0398207
0.240375 0.0693916 0.0398068
0.130672 0.0788039 0.0416374
0.15063 0.0789293 0.0414312
0.170586 0.0790347 0.0412821
0.190542 0.0791227 0.0411811
0.210499 0.0791969 0.0411185
0.230458 0.0792603 0.0410865
0.130883 0.0984506 0.0440496
0.150823 0.0985858 0.043883
0.170761 0.0986907 0.0437498
0.190701 0.0987693 0.0436441
0.210644 0.0988262 0.0435593
0.23059 0.098866 0.04349
0.140374 0.0493169 0.0381433
0.160352 0.0493896 0.0379862
0.180328 0.0494505 0.0378747
0.200304 0.0495018 0.0377993
0.220281 0.0495455 0.0377521
0.240258 0.0495834 0.0377277
0.130475 0.0591462 0.0394303
0.150447 0.05924 0.0392258
0.170418 0.0593184 0.039076
0.190389 0.0593838 0.0389705
0.21036 0.0594386 0.0388996
0.230331 0.0594854 0.0388552
0.140209 0.0296186 0.0362262
0.160197 0.029662 0.0361111
0.180185 0.0296983 0.036028
0.200172 0.0297287 0.0359698
0.220159 0.0297544 0.0359307
0.240146 0.0297766 0.0359064
0.130292 0.0394805 0.0374422
0.150276 0.0395432 0.0372707
0.17026 0.0395955 0.0371436
0.190243 0.0396391 0.0370521
0.210226 0.0396756 0.0369876
0.230208 0.0397066 0.0369431
0.0611112 0.107419 0.0463201
0.0810869 0.107666 0.0460459
0.101048 0.107888 0.0457728
0.120999 0.108079 0.0455125
0.0112122 0.116416 0.0479969
0.0312386 0.116702 0.047894
0.0512428 0.11699 0.0477566
0.0712254 0.117268 0.0475877
0.0911889 0.117524 0.0473964
0.111137 0.11775 0.0471959
0.00130793 0.125969 0.0485074
0.0213526 0.126296 0.0485962
0.0413725 0.126633 0.0486447
0.0613676 0.126968 0.0486386
0.0114574 0.135817 0.0495039
0.0314955 0.136186 0.049763
0.0515063 0.136565 0.0499571
0.00155649 0.145388 0.0496527
0.0216128 0.145795 0.0501879
0.0416394 0.146221 0.0506577
0.0616373 0.146653 0.0510139
0.0117107 0.155314 0.0507378
0.0317534 0.155769 0.0515065
0.00181786 0.164926 0.0504502
0.021874 0.165415 0.0515882
0.00208564 0.184596 0.0509296
0.0119649 0.174957 0.0517043
0.0813385 0.127251 0.0486299
0.10129 0.127542 0.0485435
0.121226 0.127799 0.0484237
0.0714885 0.13688 0.0501614
0.0914467 0.137227 0.0502391
0.111385 0.137545 0.0502433
0.081604 0.146983 0.0514159
0.101547 0.147364 0.0515989
0.121472 0.147714 0.0516623
0.0121951 0.194708 0.0524632
0.00231064 0.204313 0.0512206
0.012354 0.214559 0.0531041
0.00247427 0.22415 0.0512665
0.0517593 0.156206 0.0521536
0.0418909 0.165898 0.0526175
0.0618858 0.166423 0.0534373
0.022114 0.185159 0.0528064
0.0421182 0.185781 0.0545062
0.0621002 0.186419 0.0558964
0.0319899 0.175472 0.0531322
0.0519929 0.176038 0.0543535
0.0717411 0.156587 0.0528079
0.091692 0.157008 0.0532294
0.111621 0.157401 0.0534748
0.0818452 0.166849 0.0543469
0.101779 0.167287 0.054873
0.121696 0.167698 0.055149
0.0719688 0.17658 0.0555892
0.0321915 0.19536 0.0546735
0.0222956 0.205025 0.0539858
0.0322957 0.215402 0.0562094
0.0223829 0.225098 0.0549749
0.140953 0.108316 0.0451738
0.160882 0.108449 0.0450577
0.18081 0.10855 0.0449691
0.200741 0.108623 0.0449046
0.220675 0.108674 0.0448594
0.240615 0.108708 0.0448296
0.131096 0.118012 0.0468639
0.151016 0.118184 0.0467649
0.170934 0.118319 0.0466918
0.190853 0.118419 0.0466457
0.210775 0.118491 0.0466236
0.230703 0.118541 0.0466205
0.141162 0.127955 0.0482064
0.161072 0.128135 0.0481594
0.180981 0.128278 0.0481357
0.131313 0.13768 0.0500656
0.151219 0.13791 0.0500594
0.171121 0.138102 0.0500617
0.141378 0.147814 0.0516216
0.161274 0.148055 0.0516595
0.181166 0.148259 0.051694
0.200898 0.128371 0.0481541
0.220814 0.12844 0.0481772
0.240737 0.128488 0.0482234
0.191033 0.138219 0.0501128
0.210937 0.138311 0.0501703
0.230847 0.138377 0.0502676
0.201074 0.148269 0.0518222
0.220974 0.148351 0.0519186
0.24088 0.148411 0.0520637
0.131528 0.157596 0.0535751
0.151423 0.157883 0.0536647
0.171312 0.158129 0.053714
0.141585 0.167908 0.0553134
0.16147 0.168194 0.0554666
0.181351 0.168445 0.0555535
0.191215 0.158119 0.0538945
0.211104 0.158205 0.0539744
0.231 0.158258 0.0541154
0.201251 0.168313 0.055805
0.221138 0.168377 0.0559426
0.241033 0.168412 0.0561505
0.260455 0.0891479 0.0419721
0.28041 0.0891669 0.0419711
0.300367 0.0891843 0.0419654
0.320325 0.0892003 0.041959
0.340284 0.0892144 0.0419574
0.360243 0.0892259 0.0419667
0.310389 0.0990715 0.0434992
0.330343 0.0990861 0.043493
0.350298 0.0990986 0.043493
0.370253 0.0991081 0.0435056
0.260349 0.0693953 0.0396061
0.280314 0.0694104 0.0395908
0.300281 0.0694265 0.0395788
0.320248 0.0694437 0.0395722
0.340216 0.0694619 0.0395738
0.360183 0.0694808 0.0395872
0.250425 0.079295 0.0409197
0.270384 0.0793115 0.0409028
0.290345 0.0793283 0.0408885
0.310307 0.0793459 0.040878
0.330269 0.0793643 0.0408739
0.350232 0.0793833 0.0408796
0.370196 0.0794025 0.0408985
0.250529 0.0990076 0.0434499
0.270478 0.0990335 0.043474
0.29043 0.0990534 0.043481
0.26024 0.0496428 0.0375742
0.280216 0.0496589 0.0375649
0.300192 0.0496749 0.0375588
0.320169 0.0496906 0.037558
0.340146 0.0497059 0.037565
0.360123 0.0497207 0.0375826
0.250307 0.0595667 0.0387131
0.270278 0.0595853 0.0386986
0.290249 0.059603 0.0386873
0.310221 0.0596201 0.0386803
0.330194 0.0596366 0.0386799
0.350166 0.0596523 0.0386888
0.370139 0.059667 0.0387103
0.260136 0.029802 0.035806
0.280123 0.0298167 0.0357905
0.300111 0.0298304 0.0357783
0.320098 0.0298429 0.0357701
0.340085 0.0298544 0.0357671
0.360073 0.0298646 0.0357706
0.250193 0.0397456 0.0368368
0.270176 0.039765 0.0368124
0.290159 0.0397826 0.0367922
0.310142 0.0397986 0.0367762
0.330125 0.0398132 0.0367653
0.350108 0.0398262 0.0367607
0.370091 0.0398375 0.036764
0.380226 0.0892903 0.0418763
0.400187 0.0893 0.041867
0.420147 0.0893106 0.0418623
0.440107 0.0893217 0.041865
0.460067 0.0893328 0.0418782
0.480026 0.0893434 0.0419053
0.390229 0.0991807 0.043442
0.410185 0.0991908 0.0434331
0.430142 0.0992015 0.0434299
0.450098 0.0992124 0.0434357
0.470054 0.0992227 0.0434538
0.49001 0.0992321 0.043488
0.499983 0.0893529 0.0419498
0.38018 0.0695256 0.0394473
0.400147 0.0695284 0.0394345
0.420114 0.0695354 0.0394298
0.440081 0.0695465 0.0394345
0.460048 0.0695616 0.0394499
0.480015 0.0695803 0.0394781
0.390187 0.0794506 0.0407607
0.41015 0.0794557 0.040751
0.430113 0.0794649 0.0407498
0.450076 0.0794778 0.0407588
0.470039 0.0794942 0.0407796
0.490001 0.0795137 0.0408148
0.380131 0.049732 0.03741
0.400107 0.0497267 0.037398
0.420083 0.0497245 0.0373917
0.440059 0.0497255 0.0373915
0.460034 0.0497295 0.0373983
0.48001 0.0497364 0.0374133
0.390142 0.0596835 0.0385304
0.410114 0.0596802 0.0385188
0.430085 0.0596798 0.0385134
0.450057 0.0596821 0.0385149
0.470029 0.0596872 0.0385243
0.490001 0.0596946 0.0385433
0.380074 0.029856 0.0356767
0.400061 0.0298571 0.0356678
0.420047 0.0298591 0.035662
0.440034 0.0298617 0.0356596
0.46002 0.029865 0.0356611
0.480007 0.0298689 0.0356671
0.390088 0.0398345 0.0366613
0.410071 0.0398372 0.0366507
0.430054 0.0398402 0.036644
0.450037 0.0398437 0.0366416
0.47002 0.0398473 0.036644
0.490002 0.0398511 0.0366522
0.260547 0.108754 0.0447277
0.280491 0.108791 0.044775
0.300439 0.10882 0.0448021
0.320389 0.108842 0.0448157
0.340341 0.108857 0.0448241
0.360293 0.108862 0.0448364
0.250625 0.118506 0.0463362
0.270562 0.118558 0.0464225
0.290504 0.118603 0.0464846
0.310449 0.118642 0.0465268
0.330396 0.118674 0.0465554
0.350344 0.118698 0.0465784
0.370294 0.118713 0.0466045
0.260651 0.128472 0.0479303
0.280585 0.128511 0.0480388
0.300523 0.12855 0.0481168
0.250753 0.138371 0.0498843
0.270676 0.138397 0.0500357
0.290605 0.138429 0.0501585
0.310539 0.138468 0.0502573
0.260777 0.14842 0.0517161
0.280697 0.148434 0.0518852
0.300623 0.148462 0.0520186
0.320462 0.128593 0.048174
0.340405 0.128618 0.0482306
0.36035 0.128641 0.0482739
0.330472 0.138501 0.0503539
0.350412 0.138524 0.0504518
0.370354 0.138552 0.0505389
0.320545 0.148501 0.0521718
0.340481 0.148512 0.0523091
0.36042 0.148534 0.0524234
0.250882 0.158374 0.0538968
0.27079 0.158368 0.0540893
0.290708 0.15838 0.0542408
0.310634 0.15841 0.0543565
0.260903 0.168518 0.0559932
0.28081 0.168513 0.0561781
0.300729 0.168533 0.0563191
0.330552 0.158416 0.0545614
0.350488 0.158413 0.0546961
0.370429 0.158426 0.0548086
[...]
POINT_DATA 2121
VECTORS alpha float
2.04826e-06 0.000164403 2.26927e-05
1.26239e-06 0.000105843 1.49281e-05
7.37348e-07 6.55503e-05 9.36185e-06
1.48375e-05 0.00129206 0.000170593
9.7349e-06 0.000824375 0.000109216
5.43236e-06 0.00045569 6.04222e-05
3.35641e-06 0.000283986 3.75682e-05
2.06729e-06 0.000179456 2.36098e-05
1.249e-06 0.000112958 1.47393e-05
7.57949e-07 7.23613e-05 9.34633e-06
0.000351301 2.62598e-06 -6.40751e-06
0.000547488 4.2568e-06 -1.03063e-05
0.000632063 4.90034e-06 -1.1582e-05
0.000669157 4.96602e-06 -1.1258e-05
0.000684059 4.67879e-06 -9.96599e-06
0.000690952 4.21405e-06 -8.21533e-06
7.68209e-06 0.00059947 5.89486e-05
5.72547e-06 0.000434295 4.86009e-05
3.78316e-06 0.000284794 3.56528e-05
1.17387e-05 0.000951543 0.000109188
8.04954e-06 0.000633298 7.68877e-05
4.78555e-06 0.000372709 4.76114e-05
3.1434e-06 0.000247157 3.2934e-05
0.00036399 3.64041e-06 -5.05144e-06
0.000568985 5.73179e-06 -8.51867e-06
0.000659046 6.41274e-06 -1.00944e-05
0.000699933 6.29019e-06 -1.04259e-05
0.000717354 5.68029e-06 -9.92142e-06
0.000725702 4.82156e-06 -8.96674e-06
1.67246e-05 0.00161797 0.000240331
1.06088e-05 0.00100574 0.000144583
5.64616e-06 0.000533035 7.39246e-05
3.32324e-06 0.000317242 4.23737e-05
1.9661e-06 0.000192464 2.47607e-05
1.17248e-06 0.000119163 1.47922e-05
7.42065e-07 7.91259e-05 9.50684e-06
0.00033364 1.76754e-06 -5.57328e-06
0.000518416 2.80245e-06 -8.81086e-06
0.000596654 3.15975e-06 -9.71637e-06
0.000629923 3.14088e-06 -9.25713e-06
0.000642688 2.90854e-06 -8.02536e-06
0.000648671 2.58194e-06 -6.47202e-06
1.68558e-05 0.00192432 0.000319128
1.04446e-05 0.00117478 0.000184279
5.37794e-06 0.000603775 8.91482e-05
3.05564e-06 0.000346642 4.8083e-05
1.75409e-06 0.000203352 2.65333e-05
1.03936e-06 0.000124392 1.53336e-05
6.86905e-07 8.56358e-05 1.0039e-05
0.000311447 8.44224e-07 -3.22037e-06
0.00048241 1.31744e-06 -5.04725e-06
0.000553403 1.46039e-06 -5.50978e-06
0.000582549 1.42662e-06 -5.19088e-06
0.000593104 1.29868e-06 -4.44606e-06
0.000598086 1.13428e-06 -3.53764e-06
4.27729e-07 4.0323e-05 5.76007e-06
2.59566e-07 2.66954e-05 3.84409e-06
1.88191e-07 2.1247e-05 3.07277e-06
1.64219e-07 2.04156e-05 2.95728e-06
1.55108e-07 2.12385e-05 3.07442e-06
1.444e-07 2.17354e-05 3.13727e-06
4.91688e-07 5.00975e-05 6.36375e-06
3.61973e-07 3.99187e-05 5.04327e-06
3.06492e-07 3.68112e-05 4.62796e-06
2.79972e-07 3.67621e-05 4.60187e-06
2.57529e-07 3.70365e-05 4.61766e-06
2.29539e-07 3.61677e-05 4.49064e-06
0.000697412 3.61004e-06 -5.88656e-06
0.000707193 3.08219e-06 -4.19018e-06
0.000720506 2.62536e-06 -2.73804e-06
0.000736211 2.2564e-06 -1.55166e-06
0.000752714 1.9749e-06 -5.92113e-07
0.000768661 1.76757e-06 2.24896e-07
0.000732491 4.39073e-06 -4.91007e-06
0.000742083 3.43211e-06 -3.85627e-06
0.000754666 2.57661e-06 -3.00088e-06
0.000769269 1.85479e-06 -2.38253e-06
0.000784449 1.27161e-06 -1.96824e-06
0.000798973 8.10752e-07 -1.66551e-06
5.32287e-07 6.04808e-05 7.02056e-06
4.44028e-07 5.41364e-05 6.16829e-06
4.07304e-07 5.35746e-05 6.01604e-06
3.81692e-07 5.4367e-05 6.03571e-06
3.49569e-07 5.40448e-05 5.94416e-06
3.07611e-07 5.16899e-05 5.63836e-06
0.000655156 2.26247e-06 -4.90619e-06
0.000665512 1.91997e-06 -3.54432e-06
0.00067977 1.63177e-06 -2.41722e-06
0.000696603 1.40268e-06 -1.5231e-06
0.000714278 1.2277e-06 -8.15536e-07
0.000731341 1.0952e-06 -2.18214e-07
5.37952e-07 7.09749e-05 7.94395e-06
4.90032e-07 6.86372e-05 7.44175e-06
4.72105e-07 7.06294e-05 7.47175e-06
4.4933e-07 7.21698e-05 7.49194e-06
4.1052e-07 7.11009e-05 7.27244e-06
3.57788e-07 6.70847e-05 6.77835e-06
0.000604407 1.07109e-06 -2.89995e-06
0.000614886 9.0793e-07 -2.11804e-06
0.000629408 7.72361e-07 -1.475e-06
0.000646492 6.6458e-07 -9.67201e-07
0.000664311 5.80973e-07 -5.68881e-07
0.000681363 5.15636e-07 -2.40091e-07
2.74115e-06 0.000206788 2.83796e-05
1.89208e-06 0.000146878 2.15894e-05
1.19552e-06 9.7281e-05 1.502e-05
6.71467e-07 5.81981e-05 9.27863e-06
0.000372062 4.56768e-06 -1.76061e-06
0.000583589 7.34172e-06 -3.62619e-06
0.0006786 8.37728e-06 -5.1177e-06
0.000723619 8.37991e-06 -6.12956e-06
0.000744405 7.71532e-06 -6.58115e-06
0.000755299 6.66904e-06 -6.5237e-06
3.11906e-06 0.000239312 2.01531e-05
3.07933e-06 0.000228714 2.38347e-05
2.61042e-06 0.000191901 2.37617e-05
2.18894e-06 0.000162532 2.30153e-05
0.000374371 6.08665e-06 4.19992e-06
0.000589072 1.00404e-05 5.27873e-06
0.000687628 1.18383e-05 3.83432e-06
-1.60715e-06 -0.000123282 -8.45802e-06
2.62633e-07 1.98728e-05 1.89193e-06
1.25301e-06 9.56028e-05 1.15934e-05
1.46671e-06 0.000114659 1.66076e-05
0.000371202 7.56724e-06 1.29824e-05
0.000585881 1.26602e-05 1.82259e-05
-6.08952e-06 -0.000485126 -2.52136e-05
-2.31283e-06 -0.000190773 -1.62333e-05
-9.41953e-06 -0.00084082 -2.94357e-05
0.000361157 8.90547e-06 2.40673e-05
1.64773e-06 0.000126269 1.98516e-05
1.0756e-06 8.63652e-05 1.45764e-05
5.77132e-07 4.92613e-05 8.70787e-06
0.000736318 1.19624e-05 3.33887e-06
0.000760741 1.14701e-05 1.07117e-06
0.000774969 1.05209e-05 -1.00288e-06
1.25953e-06 0.000102187 1.69678e-05
8.49694e-07 7.22563e-05 1.30968e-05
4.18415e-07 3.75103e-05 7.1862e-06
0.000343526 1.07724e-05 3.59162e-05
-9.58701e-06 -0.0011843 -2.50808e-05
0.000318428 1.29811e-05 4.72852e-05
-4.57011e-06 -0.00150931 -9.226e-06
0.000686635 1.50942e-05 1.63448e-05
-4.29449e-08 -3.7631e-06 -4.41355e-07
6.73779e-07 6.30667e-05 9.24427e-06
-3.87453e-06 -0.000399701 -2.95738e-05
-8.37087e-07 -0.000103936 -1.16796e-05
6.24759e-08 9.40732e-06 1.38257e-06
0.000571151 1.49723e-05 3.41315e-05
0.000671304 1.81808e-05 3.22846e-05
0.000738516 1.48278e-05 1.64562e-05
0.000766877 1.45163e-05 1.11554e-05
0.000785269 1.3751e-05 5.46114e-06
7.42303e-07 7.39536e-05 1.27639e-05
5.15823e-07 5.39115e-05 1.0268e-05
1.9973e-07 2.15541e-05 4.35834e-06
0.000724213 1.63862e-05 3.38198e-05
0.000542995 1.77958e-05 5.21504e-05
-3.01198e-06 -0.000601911 -3.94681e-05
0.000501267 2.09553e-05 6.92906e-05
1.61717e-06 -0.000792119 -4.33118e-05
3.35649e-07 3.07383e-05 5.01882e-06
1.41264e-07 1.42489e-05 2.37623e-06
6.142e-08 6.86863e-06 1.16134e-06
4.4239e-08 5.49971e-06 9.37547e-07
5.05225e-08 6.97534e-06 1.19338e-06
5.78191e-08 8.83005e-06 1.5096e-06
0.000763821 6.20461e-06 -3.00541e-06
0.000774282 4.92867e-06 -2.12564e-06
0.000786977 3.74073e-06 -1.17924e-06
0.000801028 2.70596e-06 -3.11409e-07
0.000815089 1.85625e-06 3.87717e-07
0.000828028 1.19136e-06 9.01502e-07
2.22935e-07 2.03058e-05 3.7374e-06
1.70156e-08 1.70759e-06 3.23919e-07
-6.21861e-08 -6.91875e-06 -1.33908e-06
0.000786408 8.81044e-06 2.72719e-07
0.000799147 7.45084e-06 5.50475e-07
0.00081358 6.21285e-06 1.20819e-06
7.77539e-08 7.49119e-06 1.51138e-06
-1.21371e-07 -1.27379e-05 -2.6528e-06
-1.93435e-07 -2.21143e-05 -4.69005e-06
-6.62546e-08 -8.2264e-06 -1.6172e-06
-4.03055e-08 -5.59678e-06 -1.11303e-06
-1.29069e-08 -1.99618e-06 -3.99255e-07
0.000828829 3.76626e-06 2.2489e-06
0.000843665 2.72921e-06 3.94691e-06
0.000856934 1.95878e-06 5.47003e-06
-1.78288e-07 -2.28522e-05 -5.00173e-06
-1.30544e-07 -1.85829e-05 -4.12664e-06
-8.17313e-08 -1.2806e-05 -2.86159e-06
0.000800809 1.13457e-05 4.5114e-06
0.000817323 9.96877e-06 2.86306e-06
0.000835221 8.77919e-06 1.9061e-06
-8.11018e-08 -9.42016e-06 -2.04284e-06
-2.5406e-07 -3.10183e-05 -6.89745e-06
-3.21742e-07 -4.07819e-05 -9.14649e-06
0.000853505 3.80986e-06 2.47392e-06
0.000870972 2.40117e-06 5.26507e-06
0.000886321 1.37195e-06 7.81613e-06
-2.81487e-07 -4.03869e-05 -9.5459e-06
-2.17522e-07 -3.38806e-05 -8.09997e-06
-1.51841e-07 -2.52749e-05 -6.0489e-06
1.19207e-07 2.10049e-05 3.13563e-06
9.67723e-08 1.89192e-05 2.83128e-06
7.33604e-08 1.59441e-05 2.38883e-06
5.22986e-08 1.2684e-05 1.90029e-06
3.54597e-08 9.65713e-06 1.44522e-06
2.32247e-08 7.16997e-06 1.07089e-06
0.000842107 3.77356e-07 1.58422e-07
0.000849859 3.386e-07 2.42295e-07
0.000856811 2.64078e-07 6.01249e-07
0.000863043 1.50778e-07 1.23398e-06
1.8777e-07 3.37656e-05 4.28634e-06
1.5038e-07 3.00488e-05 3.81356e-06
1.15058e-07 2.56562e-05 3.25454e-06
8.47274e-08 2.12128e-05 2.68891e-06
6.05752e-08 1.71769e-05 2.17524e-06
4.23648e-08 1.37723e-05 1.74216e-06
0.000783077 2.2396e-07 6.92312e-08
0.00079593 2.85233e-07 5.23776e-08
0.000807126 3.65522e-07 8.142e-08
0.000816885 4.47659e-07 2.13946e-07
0.000825446 5.20085e-07 4.84661e-07
0.000832988 5.76361e-07 9.09487e-07
0.000839606 6.13619e-07 1.49276e-06
0.000811916 7.70249e-07 2.08927e-06
0.000823423 5.86717e-07 1.20419e-06
0.000833415 4.01307e-07 5.37929e-07
2.51753e-07 4.74529e-05 5.24643e-06
2.01027e-07 4.19205e-05 4.61974e-06
1.54832e-07 3.59266e-05 3.94718e-06
1.15811e-07 3.01308e-05 3.30082e-06
8.46221e-08 2.49405e-05 2.7248e-06
6.05639e-08 2.05028e-05 2.23443e-06
0.000746793 2.91329e-07 2.31734e-07
0.0007605 3.11907e-07 2.284e-07
0.000772378 3.38835e-07 2.73709e-07
0.000782647 3.62473e-07 4.09604e-07
0.000791558 3.76594e-07 6.61191e-07
0.000799311 3.77772e-07 1.04119e-06
0.000806029 3.64303e-07 1.5558e-06
2.93241e-07 6.08271e-05 6.12031e-06
2.33479e-07 5.33175e-05 5.32756e-06
1.79997e-07 4.55782e-05 4.52587e-06
1.35234e-07 3.83111e-05 3.7826e-06
9.94501e-08 3.18803e-05 3.13142e-06
7.16107e-08 2.63628e-05 2.5776e-06
0.000696722 3.04159e-07 -9.29634e-08
0.000710066 2.91915e-07 -5.37321e-08
0.000721421 2.81381e-07 7.63672e-10
0.000731024 2.68623e-07 9.22688e-08
0.000739154 2.51067e-07 2.347e-07
0.000746044 2.27215e-07 4.36352e-07
0.000751857 1.96209e-07 7.02532e-07
1.30957e-08 5.30873e-06 8.125e-07
8.28534e-09 3.9766e-06 6.08162e-07
5.13581e-09 3.01137e-06 4.60084e-07
2.97836e-09 2.23801e-06 3.41584e-07
1.46207e-09 1.52516e-06 2.32589e-07
4.73634e-10 8.044e-07 1.2261e-07
0.000868613 2.62043e-07 -1.84517e-07
0.00087336 3.28524e-07 -5.95408e-08
0.000877253 3.75276e-07 2.05894e-07
0.000880226 3.98628e-07 6.22514e-07
0.00088223 3.955e-07 1.20183e-06
0.000883234 3.65305e-07 1.94727e-06
4.6854e-12 6.36526e-08 9.70117e-09
2.76084e-08 1.10264e-05 1.41496e-06
1.83978e-08 8.78451e-06 1.12642e-06
1.16436e-08 6.88273e-06 8.81884e-07
6.66626e-09 5.151e-06 6.59561e-07
3.12366e-09 3.46862e-06 4.43927e-07
9.05829e-10 1.77568e-06 2.27207e-07
0.000845313 -3.02571e-08 -2.7538e-07
0.000850132 1.724e-07 9.61073e-09
0.000854011 3.70063e-07 3.47596e-07
0.000856927 5.58151e-07 7.58412e-07
0.00085887 7.3187e-07 1.26553e-06
0.000859837 8.87084e-07 1.89245e-06
4.15593e-08 1.6792e-05 1.84684e-06
2.81269e-08 1.35861e-05 1.49061e-06
1.7902e-08 1.07196e-05 1.17365e-06
1.02095e-08 8.02156e-06 8.76767e-07
4.7166e-09 5.37588e-06 5.86866e-07
1.3165e-09 2.72557e-06 2.97327e-07
0.000811743 -3.6183e-07 -2.67326e-07
0.000816534 -2.13914e-07 -8.48812e-08
0.00082036 -6.60786e-08 1.18365e-07
0.00082322 7.7733e-08 3.60012e-07
0.000825118 2.1348e-07 6.59364e-07
0.000826059 3.37568e-07 1.03515e-06
5.02935e-08 2.16648e-05 2.11522e-06
3.39447e-08 1.75425e-05 1.70643e-06
2.14329e-08 1.38067e-05 1.33897e-06
1.2057e-08 1.02829e-05 9.94915e-07
5.4458e-09 6.85275e-06 6.61989e-07
1.44313e-09 3.4519e-06 3.33198e-07
0.000756684 -7.0362e-08 -1.26086e-07
0.000760616 -2.42694e-08 -5.29049e-08
0.000763681 2.04948e-08 3.41181e-08
0.000765925 6.23262e-08 1.43929e-07
0.000767388 9.96868e-08 2.85694e-07
0.000768106 1.31283e-07 4.67976e-07
5.17909e-08 9.67264e-06 1.71158e-06
4.37926e-08 9.06139e-06 1.616e-06
3.18902e-08 7.30539e-06 1.30914e-06
1.97196e-08 5.00792e-06 8.99273e-07
9.786e-09 2.7663e-06 4.96491e-07
3.1145e-09 9.8725e-07 1.76681e-07
0.000839178 1.96917e-06 4.74824e-06
0.000848449 1.73675e-06 3.61806e-06
0.000856049 1.52127e-06 2.61834e-06
0.000862356 1.28564e-06 1.85272e-06
0.000867741 1.00228e-06 1.40433e-06
0.00087248 6.55699e-07 1.32252e-06
0.000876725 2.43269e-07 1.61499e-06
3.60346e-09 6.78913e-07 1.3791e-07
8.01835e-09 1.68938e-06 3.49426e-07
4.99849e-09 1.17834e-06 2.46931e-07
0.000868055 6.42985e-07 7.66917e-06
0.000876994 9.52786e-07 6.32145e-06
0.000884016 1.31041e-06 5.13751e-06
0.0008896 1.66309e-06 4.21259e-06
-4.25888e-08 -7.97017e-06 -1.80275e-06
-2.39215e-08 -5.0856e-06 -1.1785e-06
-1.73516e-08 -4.21466e-06 -9.93304e-07
-9.21297e-10 -2.38696e-07 -5.03924e-08
-6.4856e-09 -1.86615e-06 -3.958e-07
-9.86147e-09 -3.17398e-06 -6.73371e-07
0.000894247 7.15697e-07 5.0052e-06
0.000898293 9.80392e-07 4.30779e-06
0.000901953 1.17072e-06 4.0289e-06
-1.81177e-08 -4.72352e-06 -1.1276e-06
-2.00173e-08 -5.79341e-06 -1.39832e-06
-2.07977e-08 -6.74557e-06 -1.63569e-06
0.000898737 -9.81953e-07 9.86674e-06
0.000908684 -1.75686e-07 7.94144e-06
0.000916137 7.16578e-07 6.18364e-06
0.000921674 1.62085e-06 4.69993e-06
-9.12795e-08 -1.76059e-05 -4.30063e-06
-5.5088e-08 -1.22465e-05 -3.07024e-06
-3.66031e-08 -9.50843e-06 -2.42406e-06
0.000925848 -6.7931e-07 7.01454e-06
0.000929322 7.77095e-08 5.77885e-06
0.000932332 7.5835e-07 5.00168e-06
-3.75237e-10 -1.652e-07 -3.03009e-08
-1.41537e-09 -7.2756e-07 -1.33587e-07
-1.37401e-09 -8.50097e-07 -1.56089e-07
-9.16061e-10 -7.13979e-07 -1.31004e-07
-4.42484e-10 -4.67836e-07 -8.57328e-08
-1.20754e-10 -1.99317e-07 -3.64623e-08
0.000880595 1.33522e-06 1.20173e-06
0.00088392 1.22031e-06 1.03936e-06
0.000886699 1.06976e-06 1.05817e-06
0.000888862 8.88777e-07 1.23298e-06
0.000890351 6.83879e-07 1.54061e-06
0.000891126 4.65648e-07 1.94585e-06
-8.80636e-09 -3.90235e-06 -8.41293e-07
-7.81057e-09 -3.99394e-06 -8.6633e-07
-5.88176e-09 -3.57783e-06 -7.78826e-07
0.000905192 8.73132e-08 3.24001e-06
0.000908163 8.46644e-07 2.2617e-06
0.000910712 1.57062e-06 1.49763e-06
-1.66528e-08 -7.19262e-06 -1.76907e-06
-1.41642e-08 -6.95421e-06 -1.7272e-06
-1.0649e-08 -6.11924e-06 -1.52792e-06
-3.60622e-09 -2.83133e-06 -6.17296e-07
-1.80285e-09 -1.91486e-06 -4.17294e-07
-5.65097e-10 -9.36354e-07 -2.03529e-07
0.000912757 4.36551e-07 3.40876e-06
0.000914208 1.12873e-06 2.58408e-06
0.000914978 1.8002e-06 1.85866e-06
-6.19946e-09 -4.85027e-06 -1.21833e-06
-3.13442e-09 -3.314e-06 -8.34555e-07
-9.97598e-10 -1.64872e-06 -4.14551e-07
7.75813e-12 6.29798e-08 1.57457e-08
-1.77919e-12 5.47262e-08 1.18392e-08
0.000934569 -2.20659e-07 3.47303e-06
0.000936839 1.09726e-06 1.85555e-06
0.000938818 2.36498e-06 5.17694e-07
0.000940384 -6.76503e-07 4.91127e-06
0.00094158 4.58834e-07 3.64103e-06
0.00094222 1.58461e-06 2.44792e-06
3.60795e-10 -6.76755e-07 -1.03806e-07
1.26502e-09 -1.39718e-06 -2.14187e-07
2.70063e-09 -2.11004e-06 -3.23522e-07
4.77821e-09 -2.88419e-06 -4.42615e-07
7.84398e-09 -3.85145e-06 -5.91931e-07
1.25612e-08 -5.18719e-06 -7.98661e-07
0.000883234 -5.70915e-07 -2.17842e-06
0.000882229 -5.62518e-07 -1.44248e-06
0.000880226 -5.52781e-07 -7.4884e-07
0.000877255 -5.34102e-07 -1.33242e-07
0.000873366 -4.99515e-07 3.67907e-07
0.000868625 -4.42887e-07 7.18226e-07
-4.29596e-12 6.33864e-08 8.17004e-09
7.54904e-10 -1.64842e-06 -2.12162e-07
2.84284e-09 -3.34103e-06 -4.29637e-07
6.264e-09 -5.02344e-06 -6.45877e-07
1.11259e-08 -6.75588e-06 -8.69143e-07
1.77663e-08 -8.65937e-06 -1.11551e-06
2.68598e-08 -1.09041e-05 -1.40742e-06
0.000859838 -1.09241e-06 -1.94653e-06
0.000858867 -8.92695e-07 -1.35792e-06
0.000856921 -6.93256e-07 -7.92998e-07
0.000854001 -4.92527e-07 -2.577e-07
0.000850119 -2.88247e-07 2.35231e-07
0.000845296 -7.80351e-08 6.69781e-07
-2.51428e-12 6.04793e-08 6.6388e-09
1.14062e-09 -2.60439e-06 -2.85593e-07
4.38675e-09 -5.25481e-06 -5.76119e-07
9.73954e-09 -7.90101e-06 -8.6689e-07
1.73038e-08 -1.06001e-05 -1.1651e-06
2.74089e-08 -1.34683e-05 -1.48451e-06
4.07257e-08 -1.66764e-05 -1.84501e-06
0.00082606 -5.28466e-07 -9.42894e-07
0.00082511 -3.56202e-07 -6.29657e-07
0.000823203 -1.85379e-07 -3.21274e-07
0.000820333 -1.58503e-08 -1.99948e-08
0.000816497 1.53025e-07 2.67484e-07
0.000811697 3.21973e-07 5.32763e-07
-4.93848e-13 5.55449e-08 5.38118e-09
1.2901e-09 -3.34101e-06 -3.23467e-07
5.15119e-09 -6.74263e-06 -6.53015e-07
1.16295e-08 -1.01741e-05 -9.86707e-07
2.088e-08 -1.36998e-05 -1.33192e-06
3.32714e-08 -1.74379e-05 -1.70138e-06
4.95013e-08 -2.15629e-05 -2.1135e-06
0.000768102 -2.33401e-07 -3.71581e-07
0.000767374 -1.72937e-07 -2.333e-07
0.000765899 -1.12467e-07 -1.012e-07
0.000763643 -5.16751e-08 2.34087e-08
0.000760565 9.91584e-09 1.37392e-07
0.000756621 7.27131e-08 2.37337e-07
2.2622e-08 -7.05614e-06 -1.05599e-06
3.47835e-08 -9.55256e-06 -1.43287e-06
5.15614e-08 -1.25914e-05 -1.89145e-06
7.25911e-08 -1.58661e-05 -2.38422e-06
9.6019e-08 -1.88582e-05 -2.83106e-06
1.18534e-07 -2.09625e-05 -3.13922e-06
0.000863061 4.98714e-08 -1.40684e-06
0.000856838 -9.08536e-08 -6.39816e-07
0.000849896 -1.77382e-07 -2.2112e-07
0.000842152 -2.14872e-07 -1.42927e-07
4.15101e-08 -1.36581e-05 -1.73027e-06
5.96262e-08 -1.70715e-05 -2.16573e-06
8.36978e-08 -2.11185e-05 -2.68265e-06
1.13978e-07 -2.55754e-05 -3.25216e-06
1.49301e-07 -2.99838e-05 -3.8152e-06
1.86765e-07 -3.37184e-05 -4.29143e-06
0.000839586 -4.50215e-07 -1.68453e-06
0.000832968 -4.34601e-07 -9.89898e-07
0.000825425 -3.88683e-07 -5.12126e-07
0.000816863 -3.16757e-07 -2.40138e-07
0.000807106 -2.27608e-07 -1.46636e-07
0.000795913 -1.35499e-07 -1.83611e-07
0.000783065 -6.01655e-08 -2.80621e-07
0.000833468 -2.27837e-07 -5.78074e-07
0.000823482 -3.96086e-07 -1.33321e-06
0.000811979 -5.60003e-07 -2.32351e-06
5.94762e-08 -2.0395e-05 -2.22624e-06
8.34301e-08 -2.48404e-05 -2.71859e-06
1.14531e-07 -3.00405e-05 -3.29734e-06
1.53496e-07 -3.58482e-05 -3.94688e-06
1.9969e-07 -4.18562e-05 -4.62261e-06
2.50492e-07 -4.7405e-05 -5.25181e-06
0.000805975 -2.43752e-07 -1.75661e-06
0.000799249 -2.73477e-07 -1.15241e-06
0.000791489 -2.80655e-07 -7.26585e-07
0.000782574 -2.67879e-07 -4.68386e-07
0.000772303 -2.40119e-07 -3.57038e-07
0.000760426 -2.05428e-07 -3.57796e-07
0.000746722 -1.75231e-07 -4.19202e-07
7.05717e-08 -2.62672e-05 -2.57133e-06
9.82834e-08 -3.17913e-05 -3.12647e-06
1.33943e-07 -3.823e-05 -3.77938e-06
1.78594e-07 -4.55068e-05 -4.52462e-06
2.31996e-07 -5.32576e-05 -5.32821e-06
2.91731e-07 -6.0781e-05 -6.12235e-06
0.000751782 -1.41802e-07 -8.20954e-07
0.00074596 -1.80621e-07 -5.08984e-07
0.00073906 -2.08737e-07 -2.82888e-07
0.000730923 -2.274e-07 -1.35202e-07
0.000721315 -2.38789e-07 -5.37712e-08
0.000709958 -2.46279e-07 -2.00154e-08
0.000696615 -2.54595e-07 -7.54856e-09
4.70737e-12 6.27401e-08 1.14828e-08
-1.86228e-10 3.24467e-07 5.94869e-08
-5.43003e-10 5.91976e-07 1.08673e-07
-1.05191e-09 8.36306e-07 1.53675e-07
-1.54579e-09 9.69584e-07 1.78275e-07
-1.62382e-09 8.42912e-07 1.54999e-07
-6.199e-10 2.74849e-07 5.05049e-08
0.000891131 -4.59446e-07 -1.88818e-06
0.000890374 -6.67784e-07 -1.49794e-06
0.000888906 -8.63432e-07 -1.203e-06
0.000886764 -1.03568e-06 -1.0393e-06
0.000884008 -1.17789e-06 -1.03071e-06
0.000880707 -1.28473e-06 -1.20296e-06
-6.34259e-10 1.04499e-06 2.27102e-07
-1.91674e-09 2.02112e-06 4.40367e-07
-3.76739e-09 2.93416e-06 6.39597e-07
0.000914964 -1.80548e-06 -1.79981e-06
0.000914181 -1.12403e-06 -2.5395e-06
0.000912722 -4.22821e-07 -3.37504e-06
-1.10498e-09 1.7722e-06 4.4547e-07
-3.32062e-09 3.43056e-06 8.63678e-07
-6.46386e-09 4.95717e-06 1.24488e-06
-6.09608e-09 3.67676e-06 8.00231e-07
-8.06799e-09 4.08898e-06 8.86829e-07
-9.09545e-09 3.99362e-06 8.60897e-07
0.000910674 -1.54815e-06 -1.47688e-06
0.00090813 -8.16177e-07 -2.24947e-06
0.000905169 -4.91925e-08 -3.23574e-06
-1.10032e-08 6.2159e-06 1.55172e-06
-1.45799e-08 7.04225e-06 1.74874e-06
-1.71119e-08 7.27494e-06 1.78904e-06
0.00094218 -1.5928e-06 -2.41209e-06
0.000941483 -4.61917e-07 -3.61756e-06
0.00094024 6.78001e-07 -4.89792e-06
0.000938637 -2.35723e-06 -5.22627e-07
0.000936636 -1.08736e-06 -1.86481e-06
0.000934355 2.30744e-07 -3.48058e-06
2.77435e-09 -8.8546e-07 -1.58676e-07
9.41223e-09 -2.67438e-06 -4.80533e-07
1.93322e-08 -4.92803e-06 -8.85831e-07
3.15215e-08 -7.23952e-06 -1.2986e-06
4.34835e-08 -9.01111e-06 -1.60853e-06
5.15804e-08 -9.63874e-06 -1.70707e-06
0.000876837 -5.15985e-07 -1.61525e-06
0.000872611 -8.63611e-07 -1.26681e-06
0.000867885 -1.14321e-06 -1.30556e-06
0.000862507 -1.35631e-06 -1.72901e-06
0.000856201 -1.51829e-06 -2.48912e-06
0.000848597 -1.65739e-06 -3.50151e-06
0.000839317 -1.8118e-06 -4.65988e-06
-1.0121e-08 3.26179e-06 6.92628e-07
-6.77332e-09 1.94902e-06 4.13599e-07
-1.21763e-09 3.15163e-07 6.65539e-08
0.00090192 -1.4689e-06 -4.12065e-06
0.000898273 -1.21734e-06 -4.32199e-06
0.000894234 -8.87915e-07 -4.95976e-06
-2.11566e-08 6.82644e-06 1.65581e-06