# vtk DataFile Version 3.0
vtk output
ASCII
DATASET POLYDATA
POINTS 10807 float
0.00192558 0.165869 -0.0283705
0.00156061 0.146513 -0.0241306
0.011675 0.156609 -0.0249132
0.00122451 0.127102 -0.0197041
0.011319 0.137195 -0.0206473
0.000920501 0.107633 -0.0151175
0.0109979 0.117715 -0.0162613
0.0218121 0.166705 -0.0253608
0.0214479 0.147276 -0.0212295
0.0416894 0.167544 -0.0223458
0.0615624 0.168376 -0.019455
0.0413277 0.148051 -0.0182999
0.0612125 0.1488 -0.0155279
0.0315572 0.157408 -0.0219585
0.0514286 0.158226 -0.0189985
0.0211254 0.127776 -0.0170328
0.0410191 0.128474 -0.0143108
0.0609238 0.129127 -0.0117642
0.0312077 0.137922 -0.0178376
0.0510943 0.138653 -0.0150558
0.020841 0.108222 -0.0127451
0.0407587 0.108818 -0.0103507
0.0606871 0.109369 -0.0081156
0.0309043 0.118357 -0.0137023
0.0508136 0.118988 -0.0112017
0.000653117 0.088116 -0.0103799
0.0205968 0.0886129 -0.00838873
0.0405396 0.0891005 -0.00639062
0.0604916 0.0895448 -0.00452896
0.0107145 0.0981724 -0.011755
0.0306438 0.0987231 -0.00954036
0.0505786 0.0992473 -0.00739927
0.000429132 0.0685613 -0.00551485
0.0203949 0.0689467 -0.00396659
0.0403614 0.0693224 -0.00241264
0.0603342 0.0696629 -0.000963475
0.0104735 0.0785817 -0.00712668
0.0304279 0.0790208 -0.00534204
0.0503876 0.0794362 -0.00361602
0.0102762 0.0589496 -0.00240788
0.0302515 0.0592737 -0.00108642
0.0502314 0.0595791 0.000192406
0.0705277 0.0997261 -0.00544495
0.070358 0.0797947 -0.00206319
0.0804532 0.0899 -0.00290094
0.100433 0.0902074 -0.0016029
0.120427 0.0904808 -0.000574169
0.140431 0.0906877 0.000190506
0.0904903 0.100103 -0.00381073
0.110476 0.100447 -0.00250666
0.130477 0.100712 -0.00151624
0.0803123 0.069845 0.000244637
0.100303 0.0701102 0.00126088
0.0903369 0.0800583 -0.000779718
0.110332 0.0803266 0.000258221
0.130336 0.0805318 0.00104114
0.150485 0.100905 -0.000938829
0.160438 0.090777 0.000551138
0.180445 0.0908777 0.000871081
0.200448 0.0909565 0.00110174
0.170496 0.101008 -0.000535507
0.190503 0.101106 -0.000234657
0.210505 0.101184 -7.21999e-06
0.150345 0.080638 0.00149893
0.170355 0.0807369 0.00184443
0.190362 0.0808109 0.00208174
0.0713187 0.15906 -0.0163406
0.0709997 0.13936 -0.0125659
0.0707387 0.119562 -0.00896984
0.0806265 0.109864 -0.00615824
0.10059 0.110263 -0.00460858
0.120579 0.110618 -0.00337648
0.14058 0.11089 -0.00245762
0.0906799 0.120088 -0.007029
0.110654 0.120525 -0.00551022
0.130649 0.120866 -0.00435213
0.0808423 0.129774 -0.00955921
0.100791 0.130281 -0.0077969
0.120771 0.13072 -0.00639164
0.140766 0.13106 -0.0053442
0.0909211 0.140018 -0.0104541
0.110882 0.140549 -0.00876108
0.130867 0.140969 -0.0074678
0.0811147 0.149629 -0.0131231
0.0912286 0.159884 -0.0141073
0.101053 0.150225 -0.0112386
0.12102 0.150751 -0.00970922
0.141004 0.151165 -0.00856474
0.111176 0.160489 -0.0123309
0.0814599 0.169393 -0.0169785
0.101388 0.170079 -0.0150314
0.121339 0.170688 -0.0134302
0.131155 0.16099 -0.0110638
0.150653 0.121101 -0.00365584
0.160582 0.111029 -0.00195716
0.18059 0.111157 -0.00162382
0.200593 0.111259 -0.0013852
0.170658 0.121265 -0.00317082
0.190664 0.121389 -0.00286323
0.210662 0.121492 -0.00262962
0.141303 0.171181 -0.0122988
0.150861 0.141257 -0.00672032
0.160759 0.131268 -0.00472264
0.180764 0.131426 -0.00438141
0.200764 0.131552 -0.00414121
0.170857 0.141492 -0.00612347
0.160978 0.151481 -0.00777828
0.180977 0.151657 -0.00747889
0.200967 0.151799 -0.00726823
0.190858 0.141633 -0.00595663
0.21085 0.141765 -0.00576013
0.151123 0.16133 -0.0102299
0.161258 0.171588 -0.0114075
0.181236 0.171808 -0.0110669
0.201211 0.171962 -0.0108925
0.171103 0.161654 -0.0095497
0.191091 0.161826 -0.00931344
0.211071 0.161969 -0.00914522
0.0120707 0.175992 -0.0290586
0.0319631 0.176869 -0.0261097
0.0518312 0.177784 -0.0231097
0.00232496 0.185206 -0.0324868
0.0222252 0.186116 -0.0294872
0.0421157 0.187026 -0.0265607
0.0619902 0.187954 -0.0237162
0.0124991 0.195334 -0.0331782
0.00273884 0.204524 -0.036415
0.0324071 0.196287 -0.0303169
0.0226719 0.205488 -0.0336176
0.0425949 0.206452 -0.0309569
0.0624855 0.207456 -0.0283139
0.052298 0.197254 -0.0275609
0.00315619 0.223832 -0.040171
0.0129416 0.214646 -0.0372396
0.0231419 0.224825 -0.0377715
0.0328843 0.215643 -0.0346815
0.0430984 0.225827 -0.0354663
0.0630262 0.226866 -0.0332551
0.0528103 0.216649 -0.0322158
0.00357667 0.243167 -0.0436999
0.0133901 0.233952 -0.0411217
0.0236245 0.244168 -0.0418839
0.0333817 0.234969 -0.0390531
0.0436239 0.245176 -0.0401392
0.0635911 0.246208 -0.0384989
0.0533516 0.235977 -0.0370959
0.00398412 0.262556 -0.0470144
0.0138303 0.253282 -0.044907
0.0240931 0.263531 -0.0459432
0.0338798 0.254274 -0.0434979
0.0441345 0.264502 -0.0449601
0.0641348 0.26546 -0.0440666
0.0538886 0.255237 -0.0422185
0.0142498 0.272669 -0.0485537
0.0343498 0.273621 -0.0479757
0.0543786 0.27452 -0.0474808
0.00436731 0.282007 -0.0501906
0.0245176 0.282941 -0.050067
0.0146216 0.292151 -0.0520519
0.00472752 0.301581 -0.0530062
0.0248797 0.302445 -0.0540213
0.0149482 0.311753 -0.0552984
0.0347396 0.293034 -0.0524496
0.0445861 0.283847 -0.0499578
0.0646012 0.284669 -0.0500165
0.0547692 0.293847 -0.0529192
0.0350351 0.312564 -0.0568302
0.0449391 0.303259 -0.054957
0.0649238 0.303967 -0.055991
0.0550275 0.313257 -0.0584323
0.071711 0.178643 -0.0203614
0.0818903 0.189063 -0.02122
0.0916277 0.179635 -0.0182223
0.101814 0.189831 -0.0193295
0.121745 0.190524 -0.0177567
0.111566 0.180316 -0.016484
0.131518 0.18091 -0.0151171
0.0721822 0.198213 -0.0249373
0.0727102 0.217686 -0.0298376
0.0732781 0.237064 -0.0351128
0.0823918 0.208615 -0.0259254
0.0920967 0.199265 -0.022784
0.102309 0.20946 -0.0242067
0.122224 0.210209 -0.0227989
0.112023 0.200011 -0.0211771
0.13195 0.200682 -0.0198811
0.0829396 0.228038 -0.0311151
0.0926215 0.218765 -0.02787
0.102862 0.228943 -0.0296898
0.122758 0.229721 -0.028507
0.112547 0.219554 -0.0264829
0.132446 0.220291 -0.0253064
0.0931904 0.238142 -0.0334531
0.113111 0.238927 -0.0323965
0.13298 0.239714 -0.0313982
0.141686 0.191065 -0.01661
0.151468 0.181332 -0.0142872
0.161604 0.191568 -0.0157825
0.181555 0.191852 -0.015437
0.201504 0.192034 -0.0153352
0.171408 0.181729 -0.0135433
0.191376 0.181927 -0.0133804
0.211334 0.182093 -0.0132767
0.142134 0.210834 -0.0217534
0.142634 0.230425 -0.0276067
0.151871 0.201176 -0.0190786
0.162012 0.211392 -0.0209607
0.181926 0.211737 -0.0206461
0.201839 0.211946 -0.0206221
0.171771 0.201658 -0.0183226
0.191708 0.201881 -0.0182445
0.211634 0.202073 -0.0182153
0.152329 0.220854 -0.0245782
0.162471 0.23101 -0.0269582
0.172186 0.221393 -0.0239083
0.192082 0.221641 -0.0238986
0.211968 0.221859 -0.0239293
0.152822 0.240339 -0.0307934
0.182346 0.231388 -0.0267981
0.202215 0.23163 -0.0268809
0.172637 0.240896 -0.0302806
0.192483 0.241173 -0.0303186
0.212325 0.241414 -0.0304092
0.0738429 0.256324 -0.0408501
0.0835065 0.24734 -0.0368137
0.103441 0.248283 -0.0358246
0.0937493 0.257426 -0.0395803
0.123317 0.249021 -0.0350888
0.113663 0.258192 -0.0389635
0.133512 0.258959 -0.038332
0.074366 0.275504 -0.0469767
0.0747726 0.294718 -0.0533612
0.0750183 0.313964 -0.0599754
0.0840828 0.266524 -0.0432288
0.0942644 0.276607 -0.0462088
0.103979 0.267502 -0.0425056
0.123848 0.268186 -0.0422257
0.114163 0.277329 -0.0461441
0.13399 0.278036 -0.0459334
0.0845603 0.285699 -0.0499104
0.0946805 0.295722 -0.0534486
0.10444 0.286636 -0.0496693
0.124295 0.287238 -0.0498826
0.114542 0.296415 -0.0537744
0.134354 0.297008 -0.0540512
0.0848939 0.304852 -0.0569094
0.0949253 0.31482 -0.0609915
0.104767 0.305714 -0.0572915
0.114765 0.315395 -0.0619159
0.124599 0.30622 -0.0580146
0.13455 0.315871 -0.0626692
0.143158 0.249757 -0.0343844
0.153313 0.259614 -0.0379085
0.162959 0.250379 -0.0338518
0.182773 0.250798 -0.0336872
0.202597 0.251055 -0.0338532
0.173086 0.26018 -0.0375038
0.192883 0.260463 -0.0376285
0.212678 0.260715 -0.0378069
0.14366 0.268941 -0.0418231
0.144078 0.287966 -0.0498447
0.144361 0.306849 -0.0584196
0.153756 0.278677 -0.0457352
0.163419 0.269576 -0.0413923
0.183187 0.269981 -0.0413837
0.20296 0.270234 -0.0416576
0.173495 0.279245 -0.0455004
0.193245 0.279507 -0.0457282
0.212993 0.279748 -0.0460123
0.154089 0.297613 -0.0541221
0.163806 0.288528 -0.0497148
0.183554 0.288912 -0.0498082
0.203265 0.289137 -0.0501817
0.173827 0.298088 -0.0542006
0.193524 0.298301 -0.0545336
0.154275 0.316415 -0.0630011
0.16408 0.307329 -0.0585948
0.183808 0.307645 -0.058872
0.203475 0.307816 -0.059322
0.174008 0.316722 -0.0635301
0.193681 0.31683 -0.0640435
0.220586 0.111315 -0.00119368
0.220447 0.0909533 0.00118512
0.240559 0.111351 -0.00107349
0.260537 0.111424 -0.00100924
0.280509 0.1115 -0.000892408
0.230633 0.121534 -0.00245179
0.250612 0.121611 -0.00241048
0.270584 0.121692 -0.00231694
0.240432 0.0909801 0.00125428
0.260413 0.0910474 0.00133642
0.280391 0.0911143 0.00144787
0.230493 0.101178 -2.63255e-05
0.250477 0.10125 4.5829e-05
0.270455 0.101322 0.000145774
0.290547 0.121788 -0.00213397
0.290423 0.1014 0.000305679
0.300464 0.111576 -0.000774254
0.32043 0.111622 -0.00076918
0.340389 0.11166 -0.000714357
0.310502 0.121845 -0.00213782
0.33046 0.121893 -0.00211036
0.350412 0.121931 -0.00203417
0.300356 0.0911629 0.0015432
0.320329 0.0912013 0.00156843
0.340296 0.0912341 0.00163384
0.310391 0.101441 0.000319768
0.330358 0.101482 0.000365326
0.350319 0.101515 0.000448116
0.220741 0.131622 -0.00397349
0.2407 0.131688 -0.00381791
0.260673 0.131773 -0.00378049
0.280639 0.131865 -0.00366883
0.220916 0.151884 -0.00717543
0.240861 0.151991 -0.00699236
0.260824 0.152086 -0.00699732
0.280781 0.152189 -0.00691245
0.230791 0.141825 -0.00553432
0.250763 0.141916 -0.00554095
0.270728 0.142012 -0.00547809
0.221126 0.172079 -0.0109045
0.241045 0.172214 -0.0107137
0.260996 0.172317 -0.0107719
0.280941 0.172432 -0.0107228
0.230973 0.162075 -0.00895124
0.250934 0.162175 -0.00901256
0.270887 0.162283 -0.00898923
0.30058 0.131951 -0.00356591
0.320539 0.132004 -0.00358623
0.340489 0.132047 -0.00354807
0.290674 0.142126 -0.00532338
0.30071 0.152286 -0.00683801
0.32066 0.152342 -0.0068844
0.3406 0.152388 -0.00686315
[...]
POINT_DATA 10807
VECTORS alpha float
-4.0923e-05 -0.00212079 0.000480181
-4.12559e-05 -0.00237751 0.000557186
-0.000256543 -9.37332e-06 -3.62831e-05
-3.87201e-05 -0.00260198 0.000626704
-0.000221581 -7.2037e-06 -2.8825e-05
-3.40743e-05 -0.00278943 0.000686424
-0.000183035 -5.08932e-06 -2.07662e-05
-2.52411e-05 -0.00127447 0.000286621
-2.40689e-05 -0.00141508 0.000319329
-1.24036e-05 -0.000636887 0.000140986
-6.73397e-06 -0.000352311 7.68475e-05
-1.11854e-05 -0.000694253 0.000149796
-5.72077e-06 -0.000374913 7.74264e-05
-0.000394731 -1.45739e-05 -5.5268e-05
-0.000449975 -1.5752e-05 -5.90311e-05
-2.13869e-05 -0.00153639 0.000347546
-9.41336e-06 -0.000741995 0.000156536
-4.52733e-06 -0.000392227 7.71574e-05
-0.000339128 -1.10106e-05 -4.38026e-05
-0.000384334 -1.16518e-05 -4.634e-05
-1.78851e-05 -0.0016355 0.000371154
-7.42757e-06 -0.000778941 0.000161604
-3.36329e-06 -0.000403799 7.65001e-05
-0.000278046 -7.63465e-06 -3.14437e-05
-0.000312487 -7.89123e-06 -3.28972e-05
-2.76678e-05 -0.00293466 0.000734982
-1.38201e-05 -0.00170959 0.000389766
-5.43654e-06 -0.000803905 0.000165335
-2.3275e-06 -0.000409149 7.57347e-05
-0.000141246 -3.17629e-06 -1.31229e-05
-0.000212004 -4.67402e-06 -1.9755e-05
-0.000235023 -4.69635e-06 -2.03382e-05
-2.00354e-05 -0.00303493 0.000768186
-9.55237e-06 -0.00175749 0.000402489
-3.55361e-06 -0.000816474 0.000167472
-1.44058e-06 -0.000408189 7.47526e-05
-9.69938e-05 -1.64417e-06 -6.82478e-06
-0.000142264 -2.34493e-06 -1.00399e-05
-0.000153426 -2.2764e-06 -1.00636e-05
-5.09827e-05 -5.72944e-07 -2.37087e-06
-6.99804e-05 -7.60313e-07 -3.26521e-06
-6.9172e-05 -6.73857e-07 -3.00377e-06
-0.000239355 -4.08385e-06 -1.79978e-05
-0.000151774 -1.9333e-06 -8.61498e-06
-1.03274e-06 -0.000210462 3.43211e-05
-5.44948e-07 -0.000121009 1.77172e-05
-4.26611e-07 -9.55256e-05 1.28515e-05
-4.74782e-07 -0.000101848 1.28223e-05
-0.000237254 -3.65994e-06 -1.45678e-05
-0.000235502 -2.81522e-06 -1.12043e-05
-0.000237268 -2.10692e-06 -8.34448e-06
-6.193e-07 -0.000205738 3.30867e-05
-3.32902e-07 -0.000117508 1.70035e-05
-0.000146623 -1.67442e-06 -6.73742e-06
-0.000143094 -1.26185e-06 -5.06521e-06
-0.000143442 -9.38602e-07 -3.71904e-06
-0.000243208 -1.42087e-06 -5.36347e-06
-5.86357e-07 -0.00011806 1.44275e-05
-6.82046e-07 -0.00013056 1.5468e-05
-7.26018e-07 -0.000134217 1.55556e-05
-0.000252454 -1.01752e-06 -3.54915e-06
-0.000263426 -8.14902e-07 -2.66195e-06
-0.000274622 -7.33132e-07 -2.2747e-06
-0.000147878 -6.00734e-07 -2.30245e-06
-0.000155378 -4.50375e-07 -1.61935e-06
-0.000164443 -3.68268e-07 -1.2024e-06
-0.000471246 -1.514e-05 -5.38635e-05
-0.000400207 -1.09944e-05 -4.17104e-05
-0.00032271 -7.31068e-06 -2.91454e-05
-1.576e-06 -0.000212153 3.61749e-05
-8.43489e-07 -0.00012268 1.90516e-05
-6.17758e-07 -9.36735e-05 1.35353e-05
-6.27423e-07 -9.5716e-05 1.30669e-05
-0.000323684 -6.57382e-06 -2.40131e-05
-0.000323744 -5.1753e-06 -1.86725e-05
-0.000326906 -3.94188e-06 -1.39935e-05
-2.25626e-06 -0.00021064 3.83765e-05
-1.22628e-06 -0.000122479 2.07227e-05
-8.54949e-07 -9.0369e-05 1.4464e-05
-8.02328e-07 -8.80532e-05 1.34771e-05
-0.000404225 -1.02095e-05 -3.43326e-05
-0.000406049 -8.19775e-06 -2.68503e-05
-0.0004105 -6.34992e-06 -2.01637e-05
-3.02214e-06 -0.000206287 4.03852e-05
-0.0004782 -1.44404e-05 -4.45607e-05
-1.6715e-06 -0.000120543 2.2559e-05
-1.11894e-06 -8.57857e-05 1.5471e-05
-9.75942e-07 -7.91104e-05 1.38261e-05
-0.000481877 -1.18162e-05 -3.46757e-05
-3.76499e-06 -0.000198771 4.23679e-05
-2.11807e-06 -0.000116851 2.44259e-05
-1.36241e-06 -7.99626e-05 1.63931e-05
-0.000487617 -9.4505e-06 -2.54758e-05
-0.000334263 -2.82438e-06 -9.0187e-06
-7.31767e-07 -0.000108544 1.45356e-05
-8.07661e-07 -0.000119242 1.55627e-05
-8.27494e-07 -0.000122651 1.57148e-05
-0.00034515 -1.836e-06 -5.03821e-06
-0.000357875 -1.49995e-06 -3.72425e-06
-0.000370856 -1.36293e-06 -3.22166e-06
-1.09208e-06 -6.90822e-05 1.39676e-05
-0.000419093 -4.62011e-06 -1.26502e-05
-8.81367e-07 -9.72342e-05 1.47387e-05
-9.29677e-07 -0.000105927 1.57568e-05
-9.21256e-07 -0.000109023 1.59899e-05
-0.0004314 -2.88198e-06 -6.38535e-06
-1.00387e-06 -8.44716e-05 1.47191e-05
-1.01818e-06 -9.09801e-05 1.56802e-05
-9.8182e-07 -9.36797e-05 1.60023e-05
-0.000445633 -2.52793e-06 -3.92307e-06
-0.000460157 -2.24877e-06 -3.10548e-06
-0.000497284 -7.12218e-06 -1.64873e-05
-1.05029e-06 -7.04744e-05 1.42209e-05
-1.0344e-06 -7.47e-05 1.49937e-05
-9.76762e-07 -7.69585e-05 1.53802e-05
-0.000510912 -3.91699e-06 -5.78131e-06
-0.000526353 -3.23101e-06 -3.77065e-06
-0.000542128 -2.90661e-06 -3.13399e-06
-0.000287552 -1.17013e-05 -4.20193e-05
-0.000444258 -1.8543e-05 -6.38907e-05
-0.00050865 -2.05558e-05 -6.88179e-05
-3.84708e-05 -0.00183781 0.00040142
-2.50344e-05 -0.00111821 0.000251517
-1.31447e-05 -0.000571767 0.000131152
-7.57608e-06 -0.000325422 7.59996e-05
-0.000314474 -1.39128e-05 -4.44858e-05
-3.35366e-05 -0.00153186 0.000320019
-0.000487326 -2.24583e-05 -6.82199e-05
-2.29869e-05 -0.000947802 0.000212437
-1.28813e-05 -0.000499217 0.00011869
-7.87468e-06 -0.000294158 7.35501e-05
-0.000560061 -2.52137e-05 -7.2767e-05
-2.68143e-05 -0.00120654 0.000239365
-0.000337057 -1.57766e-05 -4.30273e-05
-1.94385e-05 -0.000765921 0.000171
-0.000523695 -2.56237e-05 -6.65712e-05
-1.16851e-05 -0.00042046 0.000104099
-7.52527e-06 -0.00025894 6.93405e-05
-0.000603542 -2.92472e-05 -7.10852e-05
-1.87877e-05 -0.000865925 0.000161448
-0.000355052 -1.70748e-05 -3.76693e-05
-1.44407e-05 -0.000574471 0.000127119
-0.000552964 -2.80486e-05 -5.87683e-05
-9.39595e-06 -0.000336386 8.62801e-05
-6.44474e-06 -0.000220441 6.28478e-05
-0.0006387 -3.2211e-05 -6.22862e-05
-1.0621e-05 -0.000513241 8.90905e-05
-0.00036822 -1.75406e-05 -2.74512e-05
-8.87952e-06 -0.000375215 8.17635e-05
-0.00057463 -2.92581e-05 -4.29456e-05
-6.47685e-06 -0.000247954 6.53021e-05
-4.83223e-06 -0.000179067 5.40176e-05
-0.000665155 -3.31712e-05 -4.56261e-05
-0.000376443 -1.72695e-05 -1.25224e-05
-0.000588602 -2.90917e-05 -2.02738e-05
-0.00068248 -3.29284e-05 -2.22314e-05
-2.86598e-06 -0.000151421 2.43091e-05
-3.5026e-06 -0.000169943 3.63417e-05
-0.000378918 -1.65276e-05 6.43963e-06
3.70589e-06 0.00021579 -3.10536e-05
6.45553e-07 3.93185e-05 -8.07662e-06
-0.000375614 -1.52304e-05 2.81362e-05
-0.000593762 -2.75059e-05 8.56313e-06
-3.39468e-06 -0.000155936 4.17257e-05
-2.88743e-06 -0.000135246 4.28062e-05
-0.000689734 -3.1136e-05 8.27647e-06
-0.000589851 -2.46211e-05 4.17282e-05
-9.35842e-07 -6.12973e-05 1.64684e-05
-1.16242e-06 -8.94805e-05 2.91882e-05
-0.000686703 -2.73872e-05 4.36083e-05
-0.000535059 -1.96295e-05 -6.36401e-05
-4.43328e-06 -0.000188542 4.41498e-05
-0.000544848 -1.92389e-05 -5.19397e-05
-2.53922e-06 -0.000111516 2.6393e-05
-1.56404e-06 -7.30662e-05 1.72716e-05
-0.000550228 -1.61256e-05 -3.98166e-05
-0.000556993 -1.31277e-05 -2.97641e-05
-0.000591021 -2.49086e-05 -6.73771e-05
-0.000638401 -2.96742e-05 -6.63599e-05
-0.000676806 -3.34539e-05 -5.89097e-05
-4.81674e-06 -0.000175655 4.53543e-05
-0.000603357 -2.39327e-05 -5.61976e-05
-2.80408e-06 -0.000104602 2.80856e-05
-1.65226e-06 -6.51466e-05 1.77114e-05
-0.000610226 -2.02831e-05 -4.2444e-05
-0.0006179 -1.69865e-05 -3.15138e-05
-4.81537e-06 -0.000160331 4.54647e-05
-0.000652831 -2.84939e-05 -5.58864e-05
-2.84869e-06 -9.62202e-05 2.90485e-05
-1.58654e-06 -5.64009e-05 1.74731e-05
-0.000660925 -2.42256e-05 -4.22236e-05
-0.000669244 -2.08904e-05 -3.12237e-05
-0.000692998 -3.21774e-05 -5.04616e-05
-0.000701945 -2.74982e-05 -3.83963e-05
-0.000710709 -2.44116e-05 -2.83733e-05
-1.15543e-06 -5.8101e-05 1.36827e-05
-0.000567585 -1.01695e-05 -1.92424e-05
-1.02493e-06 -5.55723e-05 1.32319e-05
-9.68485e-07 -5.74891e-05 1.36977e-05
-8.9824e-07 -5.92946e-05 1.41283e-05
-0.000582338 -5.22223e-06 -4.4548e-06
-0.000598722 -4.37105e-06 -2.33815e-06
-0.000615475 -3.95168e-06 -1.76827e-06
-1.08719e-06 -4.64246e-05 1.27046e-05
-8.86453e-07 -3.42899e-05 1.07749e-05
-0.000629194 -1.35539e-05 -2.03714e-05
-8.64134e-07 -4.00529e-05 1.11624e-05
-7.73292e-07 -3.96515e-05 1.11044e-05
-7.08945e-07 -4.09646e-05 1.15052e-05
-0.000644746 -6.60801e-06 -2.18862e-06
-0.000661826 -5.66107e-06 -9.89227e-08
-0.000679332 -5.22449e-06 3.34368e-07
-0.000680918 -1.70758e-05 -2.02168e-05
-5.7928e-07 -2.42765e-05 7.82495e-06
-0.000696867 -7.96968e-06 -1.48012e-08
-0.000714392 -7.04544e-06 2.01166e-06
-0.000732394 -6.72243e-06 2.32363e-06
-0.000722534 -2.05203e-05 -1.84379e-05
-4.63399e-07 -2.16082e-05 7.09033e-06
-4.21271e-07 -2.24177e-05 7.39073e-06
-0.000738494 -1.03131e-05 9.5122e-07
-0.000756321 -8.33644e-06 4.44059e-06
-0.000774697 -8.19385e-06 4.47535e-06
-0.000706062 -3.51074e-05 -4.38985e-05
-4.30836e-06 -0.00014289 4.43058e-05
-2.60396e-06 -8.65672e-05 2.90964e-05
-0.000723984 -3.4187e-05 -3.74108e-05
-1.34001e-06 -4.69382e-05 1.65787e-05
-0.000733249 -3.00738e-05 -2.8908e-05
-0.000742369 -2.70892e-05 -2.05198e-05
-0.000725952 -3.44705e-05 -2.12299e-05
-0.000735162 -3.24369e-05 6.70424e-06
-0.00073363 -2.79475e-05 3.90649e-05
-3.46378e-06 -0.000123766 4.17048e-05
-0.000745547 -3.45803e-05 -1.91059e-05
-2.11527e-06 -7.57274e-05 2.81213e-05
-9.77269e-07 -3.70622e-05 1.45057e-05
-0.000755123 -3.11962e-05 -1.53088e-05
-0.000764529 -2.83313e-05 -9.79821e-06
-2.26767e-06 -0.000102978 3.68709e-05
-0.000756083 -3.34189e-05 4.31952e-06
-1.44772e-06 -6.40148e-05 2.57219e-05
-5.61323e-07 -2.67733e-05 1.14214e-05
-0.000766622 -2.99965e-05 2.55687e-06
-0.000776371 -2.74562e-05 3.75799e-06
-1.03413e-06 -8.06977e-05 3.01606e-05
-0.000755922 -2.96048e-05 3.10355e-05
-6.87399e-07 -5.13696e-05 2.18511e-05
-0.000767282 -2.66118e-05 2.13727e-05
-1.84332e-07 -1.60604e-05 7.34777e-06
-0.000777432 -2.46293e-05 1.72837e-05
-5.74894e-07 -2.18837e-05 7.88744e-06
-0.000754074 -2.31953e-05 -1.29571e-05
-2.05367e-07 -8.53419e-06 3.16622e-06
-8.21191e-08 -3.72923e-06 1.39792e-06
-7.62861e-08 -4.02654e-06 1.51804e-06
-0.000769765 -1.30638e-05 2.11689e-06
-0.000787499 -9.21447e-06 7.83964e-06
-0.000805963 -9.11042e-06 8.21926e-06
-2.26903e-07 -9.50937e-06 3.81521e-06
5.13945e-08 2.79013e-06 -1.22287e-06
1.42838e-07 1.50397e-05 -7.06673e-06
-0.000776113 -2.44652e-05 -5.09892e-06
1.50623e-07 6.86735e-06 -2.84046e-06
2.80998e-07 1.36434e-05 -5.72429e-06
2.40458e-07 1.38391e-05 -5.83837e-06
-0.000791387 -1.5195e-05 4.29974e-06
-0.000808688 -9.10369e-06 1.21564e-05
-0.000827011 -9.08284e-06 1.28229e-05
-0.000787953 -2.39819e-05 4.55691e-06
3.6724e-07 2.18305e-05 -9.90301e-06
4.87128e-07 3.03747e-05 -1.39596e-05
4.23592e-07 3.09647e-05 -1.43252e-05
-0.00080287 -1.548e-05 8.14375e-06
-0.000819454 -9.16552e-06 1.40271e-05
-0.000788835 -2.1757e-05 1.36088e-05
3.18421e-07 3.63874e-05 -1.76877e-05
4.15275e-07 4.65061e-05 -2.29331e-05
3.69254e-07 4.73772e-05 -2.35688e-05
-0.000803531 -1.45053e-05 1.20384e-05
-0.00081895 -8.23331e-06 1.58803e-05
-7.3804e-07 -0.000118314 1.52498e-05
-6.75571e-07 -0.000129192 1.53316e-05
-6.703e-07 -0.000108118 1.38733e-05
-5.66437e-07 -9.47043e-05 1.21215e-05
-4.59592e-07 -8.06952e-05 1.03096e-05
-0.00038284 -1.0789e-06 3.16886e-07
-0.000393387 -1.21472e-06 -7.80956e-07
-0.000402284 -1.32821e-06 -1.90967e-06
-6.18801e-07 -0.00011753 1.38745e-05
-5.30595e-07 -0.000102622 1.20785e-05
-4.35728e-07 -8.73107e-05 1.02588e-05
-0.000284919 -7.9219e-07 -3.8238e-07
-0.00029393 -8.30968e-07 -8.51326e-07
-0.000301505 -8.55209e-07 -1.34029e-06
-0.000409759 -1.23925e-06 -7.45637e-07
-0.000307871 -6.91281e-07 -2.61023e-07
-3.68212e-07 -6.7744e-05 8.64327e-06
-2.86324e-07 -5.65387e-05 7.2227e-06
-2.20537e-07 -4.71869e-05 6.03816e-06
-0.000415985 -7.90032e-07 3.75308e-07
-0.000421283 -6.52429e-07 -7.16241e-07
-0.000425902 -4.98785e-07 -1.8111e-06
-3.52908e-07 -7.33738e-05 8.52964e-06
-2.76555e-07 -6.14238e-05 7.12928e-06
-2.14622e-07 -5.15045e-05 5.98043e-06
-0.000313228 -4.94074e-07 -8.48651e-08
-0.000317844 -4.12575e-07 -7.29789e-07
-0.00032192 -3.20267e-07 -1.37367e-06
-7.94314e-07 -0.000105627 1.56825e-05
-7.09016e-07 -9.70247e-05 1.44144e-05
-5.89662e-07 -8.5335e-05 1.26909e-05
-4.71424e-07 -7.28681e-05 1.0848e-05
-8.19447e-07 -9.12629e-05 1.59753e-05
-7.28279e-07 -8.43003e-05 1.47842e-05
-5.97565e-07 -7.45173e-05 1.31185e-05
-4.71166e-07 -6.37954e-05 1.12613e-05
-0.000473674 -1.59083e-06 1.71427e-06
-0.000485606 -1.81667e-06 -3.32661e-08
-0.000495731 -2.00736e-06 -1.83261e-06
-8.06294e-07 -7.55187e-05 1.55344e-05
-7.08397e-07 -7.03527e-05 1.45608e-05
-5.76004e-07 -6.2613e-05 1.3043e-05
-4.4895e-07 -5.3789e-05 1.12502e-05
-0.000556894 -2.04115e-06 3.71629e-06
-0.000569937 -2.40508e-06 1.26916e-06
-0.000581039 -2.72882e-06 -1.26384e-06
-3.76968e-07 -6.11334e-05 9.13903e-06
-2.89308e-07 -5.08612e-05 7.62946e-06
-2.19552e-07 -4.22296e-05 6.3491e-06
-0.000504429 -1.75051e-06 -3.28931e-07
-3.73489e-07 -5.34702e-05 9.49705e-06
-2.83041e-07 -4.43001e-05 7.91559e-06
-2.11528e-07 -3.65342e-05 6.54897e-06
-0.000511443 -1.03922e-06 9.88056e-07
-0.000517411 -7.92453e-07 -3.9589e-07
-0.000522575 -5.17018e-07 -1.77001e-06
-0.000590632 -2.53431e-06 -7.87346e-07
-3.52372e-07 -4.50338e-05 9.49324e-06
-2.6327e-07 -3.70941e-05 7.88426e-06
-1.93133e-07 -3.03028e-05 6.46617e-06
-0.00059831 -1.37607e-06 2.01539e-06
-0.000604777 -1.10013e-06 1.5557e-07
-0.000610345 -7.87143e-07 -1.7032e-06
-1.49134e-07 -4.32658e-05 4.88852e-06
-1.05524e-07 -3.61445e-05 4.06433e-06
-7.38593e-08 -2.97007e-05 3.31473e-06
-4.83807e-08 -2.36125e-05 2.61952e-06
-0.000325568 -6.07399e-07 2.87386e-07
-0.000328799 -5.71569e-07 -4.68068e-07
-0.000331559 -5.35582e-07 -1.24222e-06
-0.000333797 -1.94288e-07 6.41861e-07
-2.74344e-08 -1.76808e-05 1.95983e-06
-1.30705e-08 -1.17911e-05 1.3103e-06
-3.91931e-09 -5.90108e-06 6.58393e-07
-8.22895e-13 -3.75602e-09 4.21342e-10
-0.00033548 5.94691e-08 8.46098e-07
-0.000336606 9.73064e-08 6.93504e-08
-0.000337157 1.35324e-07 -7.12553e-07
-1.53234e-07 -3.94789e-05 5.08013e-06
-1.05866e-07 -3.28225e-05 4.21162e-06
-7.41689e-08 -2.68618e-05 3.4321e-06
-4.88478e-08 -2.12947e-05 2.71011e-06
-0.000430008 -1.11916e-06 7.9888e-07
-0.000433617 -1.04051e-06 -6.03877e-07
-1.53351e-07 -3.51199e-05 5.2941e-06
-1.04042e-07 -2.90303e-05 4.37504e-06
-7.29394e-08 -2.36418e-05 3.56031e-06
-4.82779e-08 -1.86767e-05 2.8066e-06
-0.000436653 -1.08027e-06 -1.78078e-06
-1.42488e-07 -3.01465e-05 5.4074e-06
-9.81907e-08 -2.47205e-05 4.42824e-06
-6.86182e-08 -1.9999e-05 3.59081e-06
-4.54297e-08 -1.57238e-05 2.82086e-06
-0.000527218 -1.73323e-06 1.26968e-06
-0.000531248 -1.61991e-06 -5.4839e-07
-0.000534658 -1.49982e-06 -2.37866e-06
-1.27585e-07 -2.4722e-05 5.25071e-06
-8.72146e-08 -2.00452e-05 4.26101e-06
-6.02844e-08 -1.60593e-05 3.42941e-06
-3.95673e-08 -1.25382e-05 2.67673e-06
-0.00061545 -2.2273e-06 2.24736e-06
-0.000619792 -2.15933e-06 -2.67656e-07
-0.000623453 -2.08157e-06 -2.7889e-06
-2.69736e-08 -1.5918e-05 2.02564e-06
-1.3012e-08 -1.06058e-05 1.35346e-06
-4.02711e-09 -5.30593e-06 6.79255e-07
-1.09608e-12 -3.76595e-09 4.8376e-10
-0.000439159 -4.1311e-07 3.2861e-07
-2.62408e-08 -1.39321e-05 2.09695e-06
-1.2808e-08 -9.2721e-06 1.39974e-06
-4.07924e-09 -4.63759e-06 7.01268e-07
-2.37366e-12 -6.27071e-09 9.48459e-10
-0.000441009 1.57563e-07 1.52904e-06
-0.000442238 2.65053e-07 1.57943e-07
-0.000442832 3.70231e-07 -1.22884e-06
-0.000537465 -6.87524e-07 -7.9133e-07
-2.45516e-08 -1.16931e-05 2.09957e-06
-1.20661e-08 -7.76702e-06 1.39965e-06
-3.9096e-09 -3.87911e-06 6.9941e-07
3.24952e-13 7.00954e-10 -1.26055e-10
-0.00053951 2.91771e-07 2.2089e-06
-0.000540864 4.07675e-07 2.6747e-07
-0.000541515 5.15956e-07 -1.70596e-06
-0.00062646 -1.38186e-06 -5.28869e-07
-2.1584e-08 -9.2836e-06 1.9836e-06
-1.05854e-08 -6.15192e-06 1.32024e-06
-3.42879e-09 -3.07126e-06 6.58914e-07
-2.01671e-12 -3.92354e-09 8.37512e-10
-0.000628657 3.35814e-07 3.07059e-06
-0.000630086 3.92491e-07 4.05282e-07
-0.000630758 4.32656e-07 -2.31476e-06
-7.65993e-07 -5.88688e-05 1.41838e-05
-0.000631451 -2.79207e-06 4.71391e-06
-6.71972e-07 -5.55477e-05 1.36173e-05
-5.3995e-07 -4.9961e-05 1.23452e-05
-4.1254e-07 -4.316e-05 1.07043e-05
-0.000645428 -3.11268e-06 3.45837e-06
-0.000657276 -3.79125e-06 2.88025e-07
-6.27827e-07 -4.14755e-05 1.18055e-05
-0.000696366 -3.32597e-06 6.16072e-06
-5.57237e-07 -4.00094e-05 1.16086e-05
-4.46832e-07 -3.66132e-05 1.07144e-05
-3.35983e-07 -3.18947e-05 9.36557e-06
-0.000711162 -3.45339e-06 6.29556e-06
-0.000723655 -4.75704e-06 2.73341e-06
-0.000750131 -3.57963e-06 7.32984e-06
-0.000765516 -3.15558e-06 9.26577e-06
-0.000778395 -5.3493e-06 5.39841e-06
-4.13661e-07 -2.38563e-05 7.98787e-06
-0.000793107 -3.71238e-06 1.10643e-05
-3.80661e-07 -2.42477e-05 8.25991e-06
-3.09095e-07 -2.30482e-05 7.92766e-06
-2.28456e-07 -2.0446e-05 7.06053e-06
-0.000808792 -2.29777e-06 1.29571e-05
-0.000822049 -5.61559e-06 8.80484e-06
-0.000667557 -3.91136e-06 1.33633e-06
-3.21157e-07 -3.60976e-05 9.03759e-06
-2.35259e-07 -2.9495e-05 7.46411e-06
-1.67769e-07 -2.37678e-05 6.04401e-06
-0.000675892 -2.12648e-06 4.43013e-06
-0.000682743 -2.08962e-06 1.5557e-06
-0.000688598 -2.02959e-06 -1.39764e-06
-0.000734667 -5.1537e-06 2.70349e-06
-2.55852e-07 -2.65991e-05 7.8893e-06
-1.84954e-07 -2.14078e-05 6.43072e-06
-1.26214e-07 -1.68224e-05 5.08088e-06
-0.00074367 -2.16084e-06 6.91767e-06
-0.000750998 -2.63815e-06 3.45745e-06
-0.000757257 -3.09318e-06 -8.64156e-08
-0.000789983 -6.12116e-06 4.19098e-06
-0.000799252 -1.49883e-06 9.57592e-06
-0.000806766 -2.82926e-06 5.61624e-06
-0.000813136 -4.14392e-06 1.56906e-06
-0.000834325 -6.91704e-06 6.27278e-06
-1.72134e-07 -1.69879e-05 5.91802e-06
-1.20721e-07 -1.32865e-05 4.69804e-06
-7.58959e-08 -9.9101e-06 3.52327e-06
-0.000843799 -1.61436e-07 1.29e-05
-0.000851586 -2.5918e-06 8.40826e-06
-0.000858171 -5.02568e-06 3.81309e-06
-0.000837613 -8.04077e-06 1.67103e-05
-1.10367e-07 -6.36799e-06 2.43662e-06
-0.000824619 -2.29298e-06 1.44067e-05
-1.3658e-07 -8.56852e-06 3.33338e-06
-1.30459e-07 -9.51764e-06 3.74552e-06
-1.00284e-07 -9.01007e-06 3.56286e-06
-0.000840606 -9.75587e-07 1.65723e-05
-0.000854227 -5.24801e-06 1.35636e-05
1.70588e-07 1.06696e-05 -4.5607e-06
-0.000845748 -1.22988e-06 1.67445e-05
1.02144e-07 6.73549e-06 -2.92804e-06
4.86329e-08 3.70385e-06 -1.63272e-06
2.25568e-08 2.18515e-06 -9.67918e-07
-0.000861672 1.22297e-06 1.97531e-05
-0.000875458 -3.89442e-06 1.80185e-05
3.54413e-07 2.7005e-05 -1.26436e-05
-0.000855959 5.99634e-07 1.8209e-05
2.80816e-07 2.1401e-05 -1.02111e-05
1.83146e-07 1.63368e-05 -7.91705e-06
1.06084e-07 1.28597e-05 -6.25863e-06
-0.000871741 4.26768e-06 2.23472e-05
-0.000885689 -1.62024e-06 2.18901e-05
3.62527e-07 4.26738e-05 -2.14371e-05
3.45594e-07 3.54814e-05 -1.81792e-05
2.28918e-07 2.84507e-05 -1.48324e-05
1.16871e-07 2.31004e-05 -1.20909e-05
-0.000868702 7.51614e-06 2.44949e-05
-0.000882755 1.13248e-06 2.62342e-05
-0.000866968 -6.04689e-06 1.1581e-05
-7.45084e-08 -7.38689e-06 2.94395e-06
-4.74246e-08 -5.21265e-06 2.11195e-06
-2.29301e-08 -3.07419e-06 1.25263e-06
-0.000876344 1.96316e-06 1.54763e-05
-0.0008844 -1.64143e-06 1.18967e-05
-0.000891226 -5.25124e-06 8.26075e-06
-0.000888264 -4.23325e-06 1.60612e-05
1.92113e-08 2.0197e-06 -9.01705e-07
2.30391e-08 2.67448e-06 -1.21482e-06
2.43723e-08 3.58416e-06 -1.63686e-06
-0.000897255 4.83709e-06 1.79222e-05
-0.000905393 -7.9851e-08 1.51224e-05
-0.000912308 -5.02666e-06 1.22723e-05
-0.00089847 -1.81322e-06 1.95321e-05
8.70191e-08 1.09685e-05 -5.38171e-06
7.50882e-08 1.01404e-05 -5.06601e-06
5.36015e-08 9.86696e-06 -4.95514e-06
-0.000907175 8.08972e-06 1.93839e-05
-0.000915456 1.97817e-06 1.75615e-05
-0.000922512 -4.19825e-06 1.56703e-05
1.08368e-07 1.95641e-05 -1.03074e-05
9.50217e-08 1.7293e-05 -9.28296e-06
5.47115e-08 1.58659e-05 -8.56437e-06
-0.000895419 1.23873e-06 2.42258e-05
-0.000903436 1.00862e-05 1.94167e-05
-0.00091137 4.02156e-06 1.97643e-05
-0.000918552 -3.33678e-06 1.97173e-05
-1.05328e-07 -1.9024e-05 4.8638e-06
-7.26528e-08 -1.51571e-05 3.89735e-06
-4.88993e-08 -1.19601e-05 3.09402e-06
-3.12385e-08 -9.23483e-06 2.38973e-06
-0.000694122 -2.31139e-06 3.35461e-06
-0.000698663 -2.53798e-06 2.65272e-07
-0.000702477 -2.75024e-06 -2.81491e-06
-0.000763305 -2.10849e-06 4.84253e-06
-0.000768096 -2.88607e-06 1.35003e-06
-0.000772106 -3.64527e-06 -2.10837e-06
-7.90082e-08 -1.30167e-05 4.01299e-06