# vtk DataFile Version 3.0
vtk output
ASCII
DATASET POLYDATA
POINTS 10302 float
0.000920101 0.0877787 -0.0352365
0.0110525 0.0976517 -0.036353
0.000660319 0.0683504 -0.0318772
0.0107747 0.0782226 -0.0332014
0.000425491 0.0488785 -0.0282063
0.0105196 0.0587475 -0.0297692
0.000222037 0.0293618 -0.0242373
0.0102934 0.0392222 -0.0260617
0.020919 0.0880793 -0.0340553
0.0206566 0.068589 -0.0308652
0.0204224 0.0490494 -0.0274392
0.0310501 0.0979765 -0.0351903
0.0409143 0.0883618 -0.0329672
0.0608941 0.0886633 -0.0318167
0.0808652 0.0889456 -0.0307581
0.0406536 0.0688132 -0.0298993
0.0606393 0.0690504 -0.0289094
0.0806192 0.069269 -0.0280074
0.0307721 0.078478 -0.0321617
0.0507585 0.0787548 -0.0310571
0.0707379 0.079018 -0.0300197
0.0404207 0.0492158 -0.0266806
0.0604131 0.0493859 -0.0259247
0.0804023 0.0495402 -0.0252399
0.030516 0.0589442 -0.0289052
0.0505078 0.0591547 -0.0280041
0.0704957 0.059352 -0.0271637
0.0202202 0.0294608 -0.0237709
0.0402195 0.0295693 -0.0232804
0.0602173 0.0296717 -0.0228101
0.0802137 0.0297637 -0.0223857
0.0302906 0.0393587 -0.025447
0.0502874 0.0395009 -0.0248155
0.0702829 0.0396325 -0.0242296
0.00119781 0.107176 -0.038329
0.00148094 0.126551 -0.0411621
0.0113382 0.117057 -0.039397
0.00177405 0.145928 -0.0436905
0.0116355 0.136438 -0.0421539
0.00206674 0.16533 -0.0458913
0.0119361 0.155831 -0.0446705
0.0212007 0.107531 -0.0370786
0.0411995 0.10787 -0.0359915
0.0611758 0.108233 -0.0347913
0.081139 0.108584 -0.0336818
0.0510341 0.0983019 -0.0340829
0.0710063 0.0986304 -0.0329481
0.0214949 0.126956 -0.0399909
0.0218036 0.146378 -0.0427429
0.0221148 0.165822 -0.0453202
0.0313362 0.117436 -0.0382368
0.0414928 0.127344 -0.0389435
0.061474 0.127759 -0.0378826
0.0814315 0.128174 -0.0368239
0.0513268 0.117805 -0.0371355
0.0712944 0.118195 -0.0360001
0.0316395 0.136866 -0.0411373
0.0418039 0.146809 -0.0419005
0.0617908 0.147259 -0.0410821
0.0817461 0.147731 -0.0401758
0.0516363 0.13727 -0.0402191
0.0716035 0.137715 -0.0391963
0.0319541 0.156295 -0.0439617
0.0421201 0.16629 -0.0448413
0.0621113 0.166752 -0.0444009
0.0519534 0.156726 -0.0433512
0.0719237 0.157217 -0.0425632
0.0907113 0.0792559 -0.029136
0.090479 0.0595192 -0.0264586
0.100835 0.0891707 -0.0300127
0.120799 0.0893911 -0.0293191
0.14076 0.089578 -0.0287511
0.100597 0.0694278 -0.0273541
0.120575 0.0695986 -0.0267645
0.140549 0.0697408 -0.0262884
0.110687 0.0794388 -0.0284782
0.130657 0.0796193 -0.0278931
0.150625 0.0797693 -0.0274248
0.100388 0.0496473 -0.0247373
0.120376 0.049766 -0.0242894
0.140362 0.0498636 -0.0239322
0.110464 0.0596595 -0.0259042
0.130448 0.0597903 -0.0254359
0.150429 0.0598975 -0.0250682
0.100206 0.0298265 -0.0220704
0.120202 0.0298959 -0.0217906
0.140197 0.0299523 -0.0215705
0.0902742 0.0397332 -0.0237526
0.110269 0.0398353 -0.023343
0.130263 0.0399194 -0.0230171
0.150255 0.0399876 -0.0227657
0.160715 0.0897627 -0.0281536
0.16052 0.0698764 -0.0257614
0.180669 0.0898701 -0.0279297
0.200625 0.089936 -0.0278701
0.220581 0.0899923 -0.0277722
0.18049 0.0699507 -0.0256063
0.200461 0.0700021 -0.0255364
0.220432 0.0700455 -0.0254439
0.170588 0.0799081 -0.0269496
0.190553 0.0799764 -0.0268756
0.210517 0.0800335 -0.0267876
0.160344 0.0499568 -0.0234998
0.180327 0.0500015 -0.0234284
0.20031 0.0500387 -0.0233576
0.220292 0.0500701 -0.0232793
0.170407 0.0599893 -0.0247165
0.190386 0.0600417 -0.0246257
0.210364 0.0600855 -0.0245378
0.160188 0.0299962 -0.0213592
0.18018 0.0300267 -0.0212827
0.200172 0.0300518 -0.021219
0.220164 0.030073 -0.0211612
0.170244 0.0400378 -0.0225672
0.190234 0.0400764 -0.0224699
0.210222 0.0401084 -0.0223894
0.090973 0.0989352 -0.031974
0.091251 0.118564 -0.0350243
0.0915557 0.138149 -0.038319
0.0918776 0.157713 -0.0418904
0.101102 0.108872 -0.0329082
0.121056 0.109138 -0.0322314
0.141001 0.109375 -0.0316305
0.11094 0.0991697 -0.0312949
0.130898 0.0993999 -0.0306536
0.15085 0.0995961 -0.0301417
0.101392 0.128526 -0.0361218
0.121334 0.128824 -0.0355132
0.141262 0.129115 -0.0349128
0.111219 0.118845 -0.0343986
0.13116 0.119125 -0.0337402
0.151095 0.11937 -0.0332113
0.101704 0.148143 -0.0396386
0.121632 0.148452 -0.0391934
0.141541 0.148794 -0.0386298
0.111518 0.138456 -0.0378419
0.131441 0.138784 -0.0372144
0.151356 0.139081 -0.0367021
0.111827 0.158055 -0.0415929
0.131735 0.158401 -0.0411183
0.151629 0.158748 -0.0406473
0.160929 0.109601 -0.0309897
0.180868 0.109745 -0.0307287
0.200807 0.109828 -0.030696
0.220747 0.109903 -0.0306226
0.170786 0.0997803 -0.0295504
0.190736 0.0998651 -0.0295053
0.210686 0.0999382 -0.0294428
0.161167 0.129381 -0.0343305
0.181084 0.129555 -0.034016
0.201004 0.129656 -0.0339965
0.220925 0.12975 -0.0339341
0.171005 0.119595 -0.032603
0.190937 0.119694 -0.0325698
0.210869 0.119783 -0.0325188
0.161433 0.149106 -0.0381005
0.171243 0.139329 -0.0361486
0.181316 0.149292 -0.0378209
0.201212 0.149408 -0.037822
0.221112 0.14952 -0.0377776
0.191151 0.139449 -0.0361072
0.211062 0.139556 -0.0360732
0.171495 0.159019 -0.0401944
0.191376 0.159147 -0.0401798
0.211262 0.159267 -0.0401706
0.0122335 0.175257 -0.0470413
0.0322698 0.175761 -0.0467795
0.0820713 0.167256 -0.04393
0.0522644 0.176215 -0.046592
0.0722417 0.176713 -0.0462809
0.0821443 0.285283 -0.071577
0.0719279 0.295092 -0.0720526
0.0023477 0.184775 -0.0479634
0.0224103 0.18531 -0.0479469
0.0125074 0.194749 -0.0492201
0.00262372 0.204293 -0.0496453
0.0226856 0.204857 -0.0503656
0.0127676 0.214321 -0.0511248
0.00288482 0.223904 -0.051014
0.0229324 0.224499 -0.0525825
0.0130083 0.233996 -0.0527659
0.00315213 0.243629 -0.0520345
0.0231407 0.244247 -0.0546056
0.0325481 0.195278 -0.0495354
0.0424215 0.185805 -0.0479572
0.0624118 0.186253 -0.0481308
0.0823628 0.1868 -0.0479957
0.0525346 0.195756 -0.04994
0.0725084 0.196244 -0.0502251
0.03279 0.214881 -0.0521707
0.0426876 0.20537 -0.0510292
0.0626523 0.205824 -0.0518289
0.0825992 0.206356 -0.0523333
0.052755 0.215368 -0.0533363
0.0727067 0.215812 -0.0543658
0.0329832 0.234573 -0.0548329
0.0428973 0.225023 -0.0540775
0.0628215 0.225463 -0.0556685
0.0827413 0.225954 -0.0569117
0.0528985 0.235037 -0.0568166
0.0727972 0.235452 -0.0586881
0.0430336 0.244777 -0.0571197
0.0628905 0.245164 -0.0596487
0.0827589 0.245628 -0.0616854
0.0131863 0.25378 -0.0542458
0.00337183 0.263469 -0.0527868
0.0232503 0.264114 -0.0565225
0.0133051 0.273707 -0.0554077
0.00356964 0.28343 -0.0531132
0.0232844 0.284116 -0.0580978
0.0133921 0.293767 -0.0561688
0.00380852 0.303519 -0.0529612
0.03306 0.25436 -0.0574057
0.0528872 0.254802 -0.0604166
0.0727111 0.25517 -0.0632441
0.0430149 0.264623 -0.0602309
0.062775 0.265005 -0.0636574
0.0825656 0.265408 -0.0666529
0.0330251 0.274287 -0.0597153
0.0428534 0.284632 -0.0630775
0.0527125 0.274734 -0.0638723
0.0724307 0.275058 -0.0677055
0.062465 0.284993 -0.0675629
0.032894 0.294386 -0.0618348
0.0523694 0.294837 -0.0671405
0.0916284 0.295243 -0.0761498
0.0922485 0.275396 -0.0707719
0.101877 0.285621 -0.0748957
0.121771 0.285666 -0.077336
0.141714 0.285692 -0.0790136
0.131967 0.275661 -0.0751808
0.151893 0.275757 -0.076233
0.131354 0.29547 -0.0817362
0.151389 0.295433 -0.0832409
0.11144 0.295541 -0.0794737
0.112142 0.275625 -0.0731562
0.122302 0.265902 -0.0709888
0.142179 0.266048 -0.072202
0.152193 0.256326 -0.0693242
0.162023 0.266284 -0.0729745
0.18196 0.266382 -0.0736801
0.201847 0.266291 -0.0740354
0.221751 0.266312 -0.0741617
0.161667 0.285781 -0.0800979
0.18158 0.285803 -0.0811803
0.201612 0.285665 -0.0816496
0.221624 0.285596 -0.0817239
0.191762 0.275857 -0.0778943
0.211708 0.27581 -0.0780352
0.171759 0.275962 -0.0772867
0.171297 0.295417 -0.0846705
0.191349 0.295319 -0.0855901
0.211433 0.295204 -0.0857963
0.1721 0.25654 -0.0699979
0.191972 0.25649 -0.0704526
0.211811 0.256553 -0.0705853
0.0921726 0.177255 -0.0457898
0.102012 0.167732 -0.0435118
0.121932 0.168039 -0.0433661
0.141824 0.16842 -0.0429533
0.112116 0.177625 -0.0458309
0.132015 0.177964 -0.0456246
0.151891 0.178347 -0.0453083
0.0924352 0.196815 -0.0502268
0.0926295 0.216382 -0.0549604
0.102284 0.1873 -0.0477847
0.122202 0.187599 -0.0479562
0.142078 0.188002 -0.0477631
0.112353 0.197208 -0.0504414
0.132249 0.197516 -0.0505812
0.152108 0.197916 -0.0504725
0.10251 0.206876 -0.0524857
0.112537 0.216762 -0.0555776
0.122418 0.207167 -0.0529954
0.14228 0.207549 -0.0531173
0.132416 0.217043 -0.056058
0.152267 0.217433 -0.0561555
0.102644 0.226455 -0.0576286
0.122535 0.226725 -0.0585951
0.14239 0.227074 -0.0589908
0.161698 0.16878 -0.0424516
0.18156 0.168977 -0.0422681
0.201432 0.169105 -0.0423343
0.221309 0.169236 -0.0423734
0.171741 0.178652 -0.044917
0.1916 0.178778 -0.044959
0.211462 0.178909 -0.0450232
0.161936 0.188372 -0.0475086
0.181799 0.188571 -0.0473688
0.201631 0.1887 -0.047496
0.221485 0.188847 -0.0475807
0.171969 0.19821 -0.050302
0.191794 0.198321 -0.0504087
0.211632 0.198464 -0.0504925
0.162137 0.20792 -0.0531099
0.162255 0.227432 -0.0592091
0.17214 0.217712 -0.0562458
0.181994 0.208107 -0.0531093
0.201795 0.208214 -0.0532826
0.221631 0.20837 -0.0533945
0.191939 0.217779 -0.0564758
0.211763 0.217921 -0.0565537
0.182106 0.227582 -0.0594325
0.201905 0.227642 -0.0596495
0.221728 0.227798 -0.0597641
0.0926927 0.235956 -0.0601472
0.112592 0.236299 -0.061307
0.132455 0.236547 -0.062206
0.152313 0.236911 -0.0625791
0.102647 0.246047 -0.0634403
0.122511 0.246295 -0.0647263
0.142374 0.246582 -0.0654973
0.0925568 0.255617 -0.0653249
0.102426 0.265755 -0.0691817
0.112457 0.255891 -0.0671883
0.13231 0.256066 -0.0686242
0.162254 0.246899 -0.0658969
0.172198 0.23714 -0.0628823
0.192009 0.237148 -0.0632684
0.211839 0.237278 -0.0633787
0.182122 0.247006 -0.0663844
0.201946 0.247005 -0.0666592
0.221784 0.247146 -0.0668261
0.230469 0.0800673 -0.0265736
0.240503 0.0900154 -0.0275833
0.260465 0.0900604 -0.0276034
0.280431 0.0901101 -0.027545
0.240376 0.0700545 -0.0252649
0.260348 0.0700941 -0.0252681
0.280323 0.0701347 -0.0252138
0.250423 0.0801025 -0.0265649
0.270391 0.0801483 -0.0265353
0.290361 0.0801946 -0.0264467
0.240257 0.0500723 -0.0231353
0.260238 0.0501013 -0.0231246
0.280222 0.0501304 -0.0230759
[...]
POINT_DATA 10302
VECTORS alpha float
-2.45969e-05 -0.00184997 0.000330104
-0.000315683 -4.25136e-06 -1.74531e-05
-2.49679e-05 -0.00213613 0.000412129
-0.000288951 -3.03291e-06 -1.34234e-05
-2.3142e-05 -0.0023935 0.000493998
-0.000257818 -1.86124e-06 -8.68248e-06
-1.91933e-05 -0.00261692 0.000572961
-0.000222553 -8.23841e-07 -3.98201e-06
-1.53054e-05 -0.00112676 0.000195218
-1.50879e-05 -0.00128409 0.000234856
-1.36482e-05 -0.00142401 0.000274358
-0.000489525 -6.90658e-06 -2.63429e-05
-7.68735e-06 -0.000576476 9.59935e-05
-4.2674e-06 -0.000328183 5.26811e-05
-2.3796e-06 -0.0001891 2.92673e-05
-7.27132e-06 -0.000641718 0.000110203
-3.89425e-06 -0.000354879 5.73516e-05
-2.10399e-06 -0.000198844 3.03076e-05
-0.000446593 -4.75042e-06 -2.00151e-05
-0.000511125 -5.27301e-06 -2.22324e-05
-0.00053702 -5.10814e-06 -2.12854e-05
-6.43839e-06 -0.000698141 0.000124523
-3.3551e-06 -0.000376629 6.21729e-05
-1.76898e-06 -0.000205793 3.15327e-05
-0.0003968 -2.85205e-06 -1.29838e-05
-0.000452077 -3.10155e-06 -1.42643e-05
-0.000472912 -2.93951e-06 -1.35063e-05
-1.112e-05 -0.00154367 0.000313015
-5.21669e-06 -0.000744566 0.000138817
-2.67937e-06 -0.000392988 6.72268e-05
-1.39518e-06 -0.000209817 3.3035e-05
-0.000340675 -1.23561e-06 -5.91601e-06
-0.000385867 -1.31665e-06 -6.43864e-06
-0.000401371 -1.22156e-06 -6.04437e-06
-2.23065e-05 -0.00154051 0.000252328
-1.83985e-05 -0.00121184 0.000180545
-0.000337778 -5.65257e-06 -1.90054e-05
-1.3195e-05 -0.000868367 0.00011604
-0.000355075 -6.89045e-06 -1.83652e-05
-7.6541e-06 -0.000513759 6.0422e-05
-0.000367462 -8.03424e-06 -1.46912e-05
-1.43194e-05 -0.000954723 0.000157035
-7.57642e-06 -0.000503584 8.25907e-05
-4.41057e-06 -0.000297053 4.85636e-05
-2.56054e-06 -0.000176766 2.87017e-05
-0.000562474 -7.67703e-06 -2.83993e-05
-0.000593093 -7.71395e-06 -2.72951e-05
-1.23782e-05 -0.000771113 0.000120959
-9.41711e-06 -0.000577895 8.63636e-05
-6.02037e-06 -0.000377101 5.33209e-05
-0.000525298 -8.99517e-06 -2.93676e-05
-6.97976e-06 -0.000424381 6.98413e-05
-4.26194e-06 -0.000261886 4.44227e-05
-2.59291e-06 -0.000161953 2.81788e-05
-0.000605504 -1.01886e-05 -3.16833e-05
-0.000640336 -1.0521e-05 -3.08293e-05
-0.00055363 -1.10744e-05 -2.89771e-05
-5.76263e-06 -0.00033964 5.63586e-05
-3.75257e-06 -0.000223261 3.96057e-05
-2.40354e-06 -0.000144938 2.72149e-05
-0.000639869 -1.26169e-05 -3.07942e-05
-0.000678364 -1.33316e-05 -3.0628e-05
-0.000574178 -1.32968e-05 -2.31275e-05
-4.18585e-06 -0.000250411 4.1627e-05
-2.98483e-06 -0.000181644 3.36826e-05
-0.00066539 -1.48076e-05 -2.48893e-05
-0.000707024 -1.59369e-05 -2.58601e-05
-0.00054612 -4.63499e-06 -1.81117e-05
-0.000479256 -2.64722e-06 -1.12683e-05
-1.36198e-06 -0.000111792 1.68145e-05
-8.38306e-07 -7.31867e-05 1.06664e-05
-6.21712e-07 -5.81216e-05 8.24503e-06
-1.19663e-06 -0.000116732 1.68392e-05
-7.72648e-07 -7.98068e-05 1.0986e-05
-6.26759e-07 -6.88326e-05 9.12084e-06
-0.00055079 -4.06296e-06 -1.40741e-05
-0.000557151 -3.42502e-06 -1.14909e-05
-0.000567635 -2.88785e-06 -9.44255e-06
-1.00661e-06 -0.000120033 1.71193e-05
-6.82667e-07 -8.53244e-05 1.148e-05
-5.98693e-07 -7.86079e-05 1.00928e-05
-0.000482258 -2.29087e-06 -8.84631e-06
-0.000487534 -1.90048e-06 -7.11896e-06
-0.000497092 -1.58144e-06 -5.73475e-06
-8.00308e-07 -0.000121642 1.77264e-05
-5.73326e-07 -8.96455e-05 1.22462e-05
-5.41494e-07 -8.72707e-05 1.1319e-05
-0.000404901 -1.12878e-06 -4.82522e-06
-0.000406233 -9.36978e-07 -3.9496e-06
-0.000410365 -7.65996e-07 -3.14446e-06
-0.000418852 -6.30882e-07 -2.49943e-06
-5.43937e-07 -5.54693e-05 7.72393e-06
-5.97807e-07 -7.00241e-05 9.02943e-06
-5.20775e-07 -5.73717e-05 7.92769e-06
-4.87714e-07 -5.91717e-05 8.15636e-06
-4.35152e-07 -5.8636e-05 8.06506e-06
-5.92452e-07 -7.42185e-05 9.42293e-06
-5.60105e-07 -7.64683e-05 9.62678e-06
-4.99672e-07 -7.49152e-05 9.37609e-06
-0.000582024 -1.35676e-06 -1.56485e-07
-0.000598717 -1.17162e-06 -8.70954e-07
-0.000615831 -1.02618e-06 -1.8534e-06
-6.14714e-07 -8.36256e-05 1.03681e-05
-6.20892e-07 -9.00607e-05 1.09289e-05
-5.9583e-07 -9.2732e-05 1.10875e-05
-5.36213e-07 -9.01885e-05 1.06697e-05
-0.000510503 -7.84756e-07 -6.62824e-07
-0.000526147 -6.77273e-07 -9.1773e-07
-0.000542189 -5.9455e-07 -1.34294e-06
-5.85055e-07 -9.60379e-05 1.20014e-05
-6.1012e-07 -0.000104607 1.27156e-05
-5.97002e-07 -0.000107661 1.28252e-05
-5.44896e-07 -0.000104171 1.22215e-05
-0.000431078 -3.79237e-07 -7.80226e-07
-0.000445431 -3.22885e-07 -7.30899e-07
-0.000460153 -2.80837e-07 -7.73836e-07
-0.00060496 -6.98462e-06 -2.38846e-05
-0.00065458 -9.85323e-06 -2.71622e-05
-0.000694723 -1.28221e-05 -2.74194e-05
-0.00072527 -1.56617e-05 -2.39503e-05
-1.45759e-06 -0.000105301 1.72433e-05
-8.56637e-07 -6.55617e-05 1.06e-05
-5.63126e-07 -4.66693e-05 7.45547e-06
-0.00061119 -6.08287e-06 -1.81539e-05
-0.000618546 -5.28346e-06 -1.47438e-05
-0.00062978 -4.58207e-06 -1.19498e-05
-1.48446e-06 -9.73318e-05 1.76702e-05
-8.23278e-07 -5.70811e-05 1.04449e-05
-4.58047e-07 -3.46783e-05 6.34472e-06
-0.000662316 -8.28229e-06 -2.09624e-05
-0.000670504 -7.42366e-06 -1.70915e-05
-0.00068227 -6.64239e-06 -1.38774e-05
-1.4122e-06 -8.80228e-05 1.77114e-05
-7.29182e-07 -4.78646e-05 9.90604e-06
-3.07944e-07 -2.23163e-05 4.66789e-06
-0.000703729 -1.05827e-05 -2.1715e-05
-0.00071263 -9.76929e-06 -1.79441e-05
-0.000724776 -8.99006e-06 -1.4777e-05
-0.000735161 -1.32437e-05 -2.0498e-05
-0.000744814 -1.21665e-05 -1.72772e-05
-0.00075717 -1.14999e-05 -1.48837e-05
-4.49743e-07 -4.02075e-05 6.38108e-06
-4.07021e-07 -3.98042e-05 6.31918e-06
-3.75932e-07 -4.11268e-05 6.5538e-06
-3.35962e-07 -4.15978e-05 6.64352e-06
-0.000644953 -2.03178e-06 6.4501e-07
-0.000662403 -1.81692e-06 -1.76005e-07
-0.00068031 -1.66275e-06 -1.32869e-06
-3.04821e-07 -2.45452e-05 4.52202e-06
-2.46083e-07 -2.18697e-05 4.04801e-06
-2.25204e-07 -2.26939e-05 4.22904e-06
-2.08117e-07 -2.41495e-05 4.5158e-06
-0.000697919 -2.71407e-06 8.86661e-07
-0.000715832 -2.5153e-06 8.27125e-08
-0.000734224 -2.4093e-06 -1.14569e-06
-1.09447e-07 -8.70929e-06 1.84496e-06
-0.000740619 -4.18241e-06 -5.76119e-07
-4.56767e-08 -3.80805e-06 8.15224e-07
-4.29371e-08 -4.11379e-06 8.88494e-07
-5.79156e-08 -6.50614e-06 1.41083e-06
-0.000758782 -3.33602e-06 5.89902e-07
-0.000777496 -3.32108e-06 -7.30762e-07
-0.000772897 -6.08077e-06 -2.25766e-06
-0.000790955 -4.02316e-06 1.41717e-06
-0.000809712 -4.10816e-06 6.83163e-08
-0.000375022 -8.93011e-06 -6.72071e-06
-0.00058723 -1.51824e-05 -1.11706e-05
-2.03886e-06 -0.000125923 2.56762e-05
-0.00068196 -1.6883e-05 -1.27696e-05
-0.000726534 -1.76947e-05 -1.42285e-05
-5.18637e-07 1.85581e-05 -4.56786e-06
-0.000623192 -1.18803e-05 0.000130956
-2.13313e-06 -0.000151297 1.56197e-05
-2.53505e-06 -0.000170615 2.307e-05
-0.000377178 -9.804e-06 4.72594e-06
2.88402e-06 0.000215151 -1.85382e-05
5.20233e-07 3.94097e-05 -4.97461e-06
-0.000374093 -1.03704e-05 1.88533e-05
7.66296e-06 0.000582015 -3.97997e-05
2.73542e-06 0.000250831 -2.8952e-05
-0.000365415 -1.07291e-05 3.52469e-05
1.1993e-05 0.000945106 -4.69162e-05
3.74113e-06 0.000461315 -4.74823e-05
-0.000591969 -1.65165e-05 6.14059e-06
-2.39977e-06 -0.000157458 2.63661e-05
-1.98465e-06 -0.000137383 2.69636e-05
-1.46267e-06 -0.000104997 2.30502e-05
-0.000688891 -1.86109e-05 5.61721e-06
-0.000735693 -1.93422e-05 3.02603e-06
-0.000588421 -1.70979e-05 2.77323e-05
-7.82724e-07 -6.18536e-05 1.03765e-05
-1.01194e-06 -9.09298e-05 1.86298e-05
-8.21773e-07 -8.2352e-05 1.91844e-05
-0.000686252 -1.91727e-05 2.88803e-05
-0.000734564 -1.95477e-05 2.49709e-05
-0.000575773 -1.72378e-05 5.34562e-05
3.13164e-07 3.54991e-05 -5.88646e-06
-2.59847e-07 -4.28327e-05 8.98959e-06
-2.32149e-07 -5.84115e-05 1.42244e-05
-0.000673233 -1.87213e-05 5.61273e-05
-0.000722733 -1.84662e-05 5.09077e-05
5.05904e-07 0.000133569 -2.15446e-05
-5.94445e-09 6.40489e-06 -1.35368e-06
1.3312e-07 -3.34278e-05 8.36725e-06
-0.000350956 -1.10837e-05 5.34366e-05
1.47776e-05 0.00129964 -3.7952e-05
2.72052e-06 0.000668277 -5.87663e-05
-0.000330812 -1.14883e-05 7.10589e-05
1.59392e-05 0.00164073 -1.32711e-05
-5.15513e-07 0.000869037 -6.20694e-05
-0.000304969 -1.1995e-05 8.60372e-05
2.00954e-05 0.00196168 2.86065e-05
-0.00055425 -1.70839e-05 8.18227e-05
-0.000650033 -1.76555e-05 8.64392e-05
-0.000700239 -1.66706e-05 7.99069e-05
-7.73748e-07 0.000231212 -3.52832e-05
-5.7526e-07 5.62364e-05 -1.16895e-05
1.15129e-07 -7.69064e-06 1.93415e-06
-0.000523808 -1.66727e-05 0.000109636
-3.74758e-06 0.000327339 -4.58717e-05
-0.000616649 -1.63489e-05 0.000115968
-0.000667093 -1.4909e-05 0.000107055
-2.21805e-06 0.000106158 -2.10992e-05
-0.000484041 -1.63262e-05 0.000133969
-0.000572762 -1.48485e-05 0.000142262
-0.000652569 -8.20731e-06 0.000109395
-0.000694945 -1.39203e-05 8.77545e-05
-1.78452e-07 5.14248e-06 -1.51167e-06
-9.80369e-07 2.89085e-05 -9.72891e-06
-1.9668e-06 6.34676e-05 -2.26974e-05
-0.000723804 -5.69957e-06 4.02877e-05
-0.000735612 -3.75577e-06 2.80713e-05
-0.000685788 -2.5776e-06 5.26772e-05
-0.000697126 9.83349e-07 3.74791e-05
-0.000672286 -7.78012e-06 7.869e-05
-0.000711293 -9.73459e-06 5.9578e-05
-2.96516e-07 1.74295e-05 -5.92225e-06
-8.72224e-07 5.20051e-05 -1.85596e-05
-0.00076494 -1.10602e-05 2.03064e-05
-1.41984e-06 7.97114e-05 -2.90042e-05
-1.21453e-06 9.44573e-05 -3.51963e-05
-8.47174e-07 9.63504e-05 -3.64512e-05
-6.59359e-07 8.93348e-05 -3.3768e-05
-2.58278e-06 9.24435e-05 -3.38775e-05
-2.64717e-06 0.000108225 -4.05144e-05
-1.92665e-06 0.000110395 -4.21328e-05
-1.41365e-06 0.000102813 -3.9308e-05
-0.000763133 -2.65051e-06 -9.22418e-07
-0.000775131 1.71027e-06 3.41484e-06
-0.000750632 -7.96256e-06 8.01377e-06
-0.000711865 -1.61463e-06 1.50085e-05
-0.000723902 -2.13307e-06 -2.34187e-06
-0.00073255 3.67305e-06 2.87061e-06
-0.000777433 -8.38613e-06 9.3323e-07
-0.00079131 -3.7876e-06 9.00977e-07
-0.000806595 -3.38878e-06 6.4431e-06
-0.000746924 -1.77287e-05 -1.46283e-05
-1.21902e-06 -7.7452e-05 1.73359e-05
-5.67644e-07 -3.80147e-05 8.94003e-06
-1.29552e-07 -9.76207e-06 2.33777e-06
-0.000757496 -1.53382e-05 -1.39552e-05
-0.000767711 -1.39556e-05 -1.17698e-05
-0.000780162 -1.36025e-05 -1.04337e-05
-0.00075766 -1.98537e-05 -4.20641e-07
-0.000757858 -2.04844e-05 1.75305e-05
-9.33151e-07 -6.57292e-05 1.63266e-05
-3.67888e-07 -2.76053e-05 7.28528e-06
3.3153e-08 2.88153e-06 -7.77506e-07
-0.000769373 -1.65958e-05 -3.13614e-06
-0.000780106 -1.49202e-05 -3.30581e-06
-0.000792692 -1.49653e-05 -3.91105e-06
-5.5661e-07 -5.28666e-05 1.42637e-05
-0.000770297 -1.65098e-05 9.06182e-06
-1.56571e-07 -1.66264e-05 4.85732e-06
1.23581e-07 1.5603e-05 -4.66106e-06
-0.000781417 -1.45395e-05 5.58133e-06
-0.000793865 -1.50584e-05 2.49789e-06
-1.73093e-07 -3.91991e-05 1.12445e-05
-1.86359e-08 -5.41222e-06 1.70654e-06
6.42932e-08 2.80515e-05 -9.09855e-06
8.47699e-08 7.06211e-06 -1.71924e-06
1.68396e-07 1.40512e-05 -3.48018e-06
1.45337e-07 1.42657e-05 -3.56451e-06
9.25551e-08 1.09988e-05 -2.75598e-06
-0.000795663 -8.09442e-06 -2.96458e-06
-0.000813255 -4.56331e-06 3.93155e-06
-0.000831776 -4.84604e-06 3.30639e-06
2.28678e-07 2.26046e-05 -6.23726e-06
3.25417e-07 3.15133e-05 -8.82875e-06
2.9263e-07 3.21722e-05 -9.10895e-06
2.04464e-07 2.80553e-05 -7.95179e-06
-0.000807962 -9.28333e-06 -1.66898e-06
-0.000824845 -5.19563e-06 3.94468e-06
-0.000843071 -5.60781e-06 4.65205e-06
2.54263e-07 3.78605e-05 -1.15563e-05
8.48054e-08 5.24713e-05 -1.73946e-05
-0.000808481 -9.68565e-06 -9.40404e-07
3.5968e-07 4.85151e-05 -1.50605e-05
3.43405e-07 4.95274e-05 -1.55816e-05
2.35615e-07 4.45917e-05 -1.40179e-05
-0.000824137 -5.2809e-06 2.79598e-06
-0.000841637 -5.73583e-06 4.8896e-06
2.21626e-07 6.46644e-05 -2.18894e-05
2.3637e-07 6.60113e-05 -2.25862e-05
1.37234e-07 6.03251e-05 -2.06e-05
-0.000747558 -1.81754e-05 3.8872e-05
-0.000760998 -1.53319e-05 2.47535e-05
-0.000772384 -1.33145e-05 1.71506e-05
-0.000784701 -1.4372e-05 1.14776e-05
1.10708e-07 -2.48718e-05 7.4023e-06
-3.01541e-08 5.97907e-06 -1.98645e-06
-2.4376e-07 4.0188e-05 -1.38625e-05
-0.000726478 -1.62063e-05 6.44454e-05
1.57814e-07 -1.00599e-05 3.03377e-06
-0.000741238 -1.32592e-05 4.24676e-05
-0.000752843 -1.16849e-05 2.91712e-05
-3.71029e-07 6.64212e-05 -2.33868e-05
-0.000798403 -9.15679e-06 1.29727e-06
-0.000813033 -4.74783e-06 3.08645e-06
-0.000829673 -5.39604e-06 6.78789e-06
-1.74625e-07 7.99537e-05 -2.88563e-05
-9.80011e-08 8.15909e-05 -2.97311e-05
-1.4985e-07 7.5197e-05 -2.73462e-05
-0.000631879 -9.35718e-07 1.00774e-06
-3.87721e-07 -5.53307e-05 7.65286e-06
-3.12728e-07 -4.97774e-05 6.89407e-06
-2.39826e-07 -4.30022e-05 5.94883e-06
-4.46431e-07 -6.97562e-05 8.7324e-06
-3.60452e-07 -6.20925e-05 7.74364e-06
-2.78458e-07 -5.3346e-05 6.62308e-06
-0.000646207 -1.02533e-06 8.44498e-07
-0.000658416 -1.11146e-06 -1.18828e-06
-0.000668672 -1.19255e-06 -3.28237e-06
-4.77767e-07 -8.32507e-05 9.77452e-06
-3.8763e-07 -7.35911e-05 8.57419e-06
-3.02003e-07 -6.30023e-05 7.28919e-06
-0.000557192 -5.74553e-07 1.45528e-06
-0.000570514 -6.2532e-07 2.59262e-07
-0.000581856 -6.64262e-07 -9.2323e-07
-0.000591377 -6.97174e-07 -2.12942e-06
-4.81661e-07 -9.55699e-05 1.10483e-05
-3.93901e-07 -8.40568e-05 9.61436e-06
-3.09887e-07 -7.17785e-05 8.13382e-06
-0.000473903 -2.33747e-07 5.6044e-07
-0.000486048 -2.61793e-07 3.79545e-09
-0.00049636 -2.84219e-07 -5.47464e-07
-0.000505006 -3.03293e-07 -1.10588e-06
-1.82988e-07 -3.59693e-05 5.02105e-06
-1.33201e-07 -2.9401e-05 4.12413e-06
-9.44426e-08 -2.3694e-05 3.32805e-06
-6.54318e-08 -1.89558e-05 2.65637e-06
-2.12396e-07 -4.46613e-05 5.58696e-06
-1.56885e-07 -3.67958e-05 4.6032e-06
-1.13587e-07 -3.00618e-05 3.75492e-06
-8.07232e-08 -2.44656e-05 3.04595e-06
-0.000677196 -8.56983e-07 9.1295e-07
-0.000684399 -6.79423e-07 -4.10576e-07
-0.000690591 -4.90083e-07 -1.73403e-06
-2.3118e-07 -5.27928e-05 6.11958e-06
-1.72789e-07 -4.37404e-05 5.04809e-06
-1.27051e-07 -3.60725e-05 4.14484e-06
-9.19013e-08 -2.96941e-05 3.39671e-06
-0.000599315 -5.31762e-07 2.67672e-07
-0.000606079 -4.02971e-07 -4.23968e-07
-0.000611927 -2.66799e-07 -1.11164e-06
-2.38134e-07 -6.01976e-05 6.79692e-06
-1.79464e-07 -5.00799e-05 5.60944e-06
-1.33245e-07 -4.15795e-05 4.62417e-06
-9.73353e-08 -3.45034e-05 3.81332e-06
-0.00051224 -2.21371e-07 4.92461e-08
-0.000518441 -1.63696e-07 -2.31963e-07
-0.000523826 -1.0292e-07 -5.10239e-07
-0.000697154 -1.19316e-06 2.52364e-07
-3.08897e-07 -4.01476e-05 6.49577e-06
-2.49973e-07 -3.67576e-05 5.9738e-06
-1.90038e-07 -3.20247e-05 5.20856e-06
-0.00071238 -1.21961e-06 1.59726e-06
-0.000725351 -1.60674e-06 -8.38662e-07
-0.000736296 -2.00083e-06 -3.37416e-06
-0.000751538 -1.4274e-06 -9.84078e-07
-0.00079532 -2.36537e-06 3.17949e-07
-2.02673e-07 -2.45677e-05 4.65529e-06
-1.68202e-07 -2.33744e-05 4.46418e-06
-1.28087e-07 -2.07445e-05 3.97393e-06
-0.00076743 -1.1265e-06 2.40319e-06
-0.000780889 -2.0055e-06 -3.33885e-07
-0.000792248 -2.91447e-06 -3.22357e-06
-0.000827766 -2.26792e-06 3.15061e-06
-7.30645e-08 -8.76941e-06 1.92884e-06
-7.31452e-08 -9.7554e-06 2.17069e-06
-5.83338e-08 -9.2426e-06 2.06542e-06
-0.000811614 -8.96001e-07 3.94728e-06
-0.000825534 -2.43258e-06 8.7988e-07
-0.000837325 -4.03502e-06 -2.41075e-06
-0.000844325 -4.99126e-07 5.79928e-06
-0.00085853 -2.63983e-06 2.48566e-06
-0.000870622 -4.88612e-06 -1.12718e-06
-1.41803e-07 -2.67146e-05 4.39256e-06
-1.03228e-07 -2.1518e-05 3.5716e-06
-7.00554e-08 -1.69139e-05 2.81673e-06
-4.58574e-08 -1.31024e-05 2.17868e-06
-0.000745478 -7.8546e-07 1.86466e-06
-0.00075317 -8.53341e-07 1.6656e-07
-0.000759774 -9.05977e-07 -1.51757e-06
-9.37647e-08 -1.72326e-05 3.33116e-06
-6.76934e-08 -1.34989e-05 2.64893e-06
-4.26348e-08 -1.00757e-05 1.98619e-06
-2.51191e-08 -7.25132e-06 1.42737e-06
-0.000801669 -3.56121e-07 2.94941e-06
-0.000809537 -8.54382e-07 8.39174e-07
-0.000816239 -1.33551e-06 -1.24483e-06
-4.16168e-08 -7.57522e-06 1.70713e-06
-2.78949e-08 -5.35779e-06 1.22993e-06
-1.36059e-08 -3.16336e-06 7.30312e-07
-4.66395e-09 -1.36614e-06 3.14975e-07
-0.000846908 3.22999e-07 4.68441e-06
-0.000855017 -7.51956e-07 2.0776e-06
-0.000861903 -1.81167e-06 -4.96133e-07
-0.000880137 1.20888e-06 6.34026e-06
-0.000888426 -4.4059e-07 3.36528e-06
-0.000895463 -2.07886e-06 4.1238e-07
-4.4283e-08 -1.50988e-05 2.11189e-06
-2.90269e-08 -1.19161e-05 1.67387e-06
-1.78846e-08 -9.19972e-06 1.29295e-06
-5.46315e-08 -1.98331e-05 2.45345e-06
-3.64786e-08 -1.58927e-05 1.97086e-06
-2.28305e-08 -1.24085e-05 1.53987e-06
-0.000696088 -7.93282e-07 1.48458e-06
-0.000700731 -6.80237e-07 -1.98357e-07
-0.000704631 -5.56915e-07 -1.84851e-06
-0.000707776 -4.41854e-07 -3.56718e-06
-6.25913e-08 -2.43425e-05 2.76228e-06
-4.23269e-08 -1.96951e-05 2.23374e-06
-2.67732e-08 -1.54855e-05 1.75534e-06
-0.000617109 -4.9864e-07 6.12616e-07
-0.00062153 -4.11083e-07 -2.93507e-07
-0.000625258 -3.17308e-07 -1.17871e-06
-0.000628273 -2.27552e-07 -2.10058e-06
-6.76117e-08 -2.85061e-05 3.12653e-06
-4.60477e-08 -2.3216e-05 2.53774e-06
-2.92465e-08 -1.83417e-05 2.00005e-06
-0.000528571 -2.13623e-07 1.78606e-07
-0.000532661 -1.75705e-07 -1.86573e-07
-0.000536119 -1.35281e-07 -5.42569e-07
-0.000538925 -9.63791e-08 -9.12993e-07
-1.00907e-08 -6.76204e-06 9.50433e-07
-4.49846e-09 -4.46389e-06 6.2809e-07
-1.16756e-09 -2.2256e-06 3.12357e-07
-2.50507e-13 -5.92863e-09 8.26835e-10
-1.28169e-08 -9.18601e-06 1.1367e-06
-5.77443e-09 -6.08678e-06 7.5277e-07
-1.52999e-09 -3.03793e-06 3.74844e-07
-2.30448e-13 -3.87921e-09 4.76648e-10
-0.000710127 -1.60389e-07 1.53847e-06
-0.000711696 -5.92718e-08 -3.08086e-07
-0.000712466 3.02103e-08 -2.21303e-06
-1.49463e-08 -1.15134e-05 1.30055e-06
-6.76075e-09 -7.64634e-06 8.62026e-07
-1.79983e-09 -3.81793e-06 4.29512e-07
4.09165e-14 6.89689e-10 -7.74056e-11
-0.000630538 -1.31674e-07 8.20933e-07
-0.000632052 -4.35451e-08 -1.76893e-07
-0.0006328 3.88179e-08 -1.20724e-06
-1.63331e-08 -1.36787e-05 1.48572e-06
-7.34845e-09 -9.10169e-06 9.86092e-07
-1.91724e-09 -4.55155e-06 4.92282e-07
-2.17982e-13 -6.15336e-09 6.64894e-10
-0.000541042 -6.2212e-08 3.18553e-07
-0.000542465 -2.49883e-08 -8.15263e-08
-0.000543178 1.01825e-08 -4.94514e-07
-3.21134e-08 -1.00842e-05 1.68022e-06
-2.03005e-08 -7.71427e-06 1.29288e-06
-1.21184e-08 -5.81554e-06 9.75509e-07
-0.000765637 -8.39225e-07 1.89869e-06
-0.000770566 -1.00722e-06 -8.39123e-08
-0.000774695 -1.16337e-06 -2.0164e-06
-0.000778017 -1.33589e-06 -4.0458e-06
-1.74551e-08 -5.10839e-06 1.00907e-06
-9.96714e-09 -3.57026e-06 7.10684e-07
-5.40913e-09 -2.49096e-06 4.96631e-07
-0.000822137 -5.08686e-07 2.35747e-06
-0.000827048 -1.17687e-06 1.25514e-07
-0.000831137 -1.83186e-06 -2.03941e-06
-0.000834413 -2.51391e-06 -4.33244e-06
-4.69693e-10 -1.29273e-07 2.99088e-08
1.6456e-09 5.58398e-07 -1.30356e-07
1.83539e-09 8.10132e-07 -1.89479e-07
-0.000867898 -1.03345e-07 2.98022e-06
-0.000872869 -1.37593e-06 4.81567e-07
-0.00087699 -2.63234e-06 -1.9379e-06
-0.000880279 -3.92714e-06 -4.51959e-06
-0.000901661 -1.26527e-07 4.03008e-06
-0.000906474 -1.398e-06 1.27986e-06
-0.000910615 -3.23245e-06 -1.26208e-06
-0.000913917 -5.11998e-06 -4.00121e-06
-6.83556e-09 -4.20929e-06 7.06648e-07
-2.97584e-09 -2.75679e-06 4.63734e-07
-7.35058e-10 -1.37189e-06 2.30157e-07
6.34186e-14 -8.65468e-09 1.44109e-09
-0.0007805 1.10535e-07 1.8766e-06
-0.000782148 -9.07513e-08 -2.07697e-07
-0.000782952 -3.12376e-07 -2.37299e-06
-3.00926e-09 -1.70643e-06 3.40062e-07
-1.23854e-09 -1.08242e-06 2.16348e-07
-2.78628e-10 -5.30567e-07 1.05758e-07
2.59974e-13 -2.77573e-09 5.48567e-10
-0.000836834 5.59484e-07 2.14782e-06
-0.000838455 -1.68454e-07 -6.49338e-08
-0.000839246 -9.28464e-07 -2.38344e-06
1.45956e-09 7.71762e-07 -1.80052e-07
6.87592e-10 5.70813e-07 -1.33728e-07
1.5344e-10 2.96289e-07 -6.92425e-08
5.72246e-13 -3.39258e-09 7.85536e-10
-0.000882658 1.04598e-06 2.51164e-06
-0.000884279 -3.12696e-07 1.88107e-08
-0.000885066 -1.71745e-06 -2.60752e-06
-0.000916263 1.59815e-06 2.99277e-06
-0.000917898 -4.14252e-07 1.13492e-07
-0.000918695 -2.48442e-06 -2.91568e-06
-3.59044e-07 7.78206e-05 -2.97242e-05
-1.33853e-07 6.51958e-05 -2.55376e-05
-1.3377e-07 5.4318e-05 -2.13577e-05
-0.000787622 -2.58648e-07 8.52796e-06
-0.000741286 3.5387e-06 1.03563e-05
-9.01073e-07 9.00963e-05 -3.45676e-05
-4.60574e-07 7.59648e-05 -3.00045e-05
-3.39061e-07 6.35256e-05 -2.52124e-05