# vtk DataFile Version 3.0
vtk output
ASCII
DATASET POLYDATA
POINTS 7575 float
0.00859468 0.482585 0.0222465
0.00977879 0.501775 0.0165388
0.011068 0.5208 0.0104112
0.012496 0.539638 0.00381757
0.0139336 0.558335 -0.003055
0.0184512 0.513704 0.0205848
0.0199441 0.532745 0.0139939
0.0216452 0.55159 0.00685365
0.0271495 0.525865 0.0244864
0.0289158 0.544939 0.0173094
0.0382225 0.557236 0.0198112
0.02343 0.57027 -0.000742022
0.030904 0.563776 0.0095305
0.0406246 0.575997 0.0110785
0.0478498 0.56972 0.0215807
0.0153616 0.576968 -0.0102485
0.0167052 0.595553 -0.0176872
0.0251964 0.588806 -0.00873141
0.0330349 0.582429 0.00109218
0.0505855 0.588396 0.0119379
0.0580082 0.582047 0.0221164
0.0179528 0.614173 -0.0252894
0.0191309 0.632852 -0.0332783
0.0351518 0.600851 -0.00781723
0.0431213 0.594487 0.00174297
0.0611158 0.600525 0.0113615
0.0684596 0.594439 0.021712
0.0795275 0.606348 0.0196309
0.0268699 0.60723 -0.0170829
0.02845 0.625666 -0.0258008
0.0455759 0.612691 -0.00827758
0.0534233 0.606649 0.00153952
0.0718633 0.612626 0.00982982
0.0907355 0.618103 0.0165291
0.0371751 0.61916 -0.0171919
0.0390558 0.637317 -0.0271398
0.0561937 0.624631 -0.00967593
0.0642249 0.618533 -0.00018154
0.0752024 0.630283 -0.00304718
0.0831023 0.62415 0.00657436
0.047913 0.630707 -0.018873
0.0672383 0.636073 -0.0126476
0.0944381 0.635401 0.00223198
0.0317623 0.739544 -0.0799656
0.0420601 0.729863 -0.0794137
0.0723213 0.720875 -0.0825714
0.0919134 0.721237 -0.0870947
0.0510909 0.739224 -0.0886984
0.0617305 0.729873 -0.0863518
0.0811567 0.729746 -0.0924977
0.0702257 0.738659 -0.096488
0.0892952 0.737753 -0.103046
0.0408601 0.749413 -0.0890273
0.0594786 0.748443 -0.0987762
0.0781347 0.747324 -0.107154
0.030931 0.759678 -0.0876708
0.0489599 0.758604 -0.0992575
0.0669725 0.757081 -0.109638
0.0852933 0.755106 -0.118276
0.0563585 0.767721 -0.110176
0.0739271 0.765736 -0.120931
0.0921413 0.763317 -0.129677
0.0898531 0.818537 -0.17797
0.0217797 0.770366 -0.08445
0.0391657 0.769408 -0.0977318
0.0461422 0.778419 -0.108807
0.0626807 0.776092 -0.121688
0.0800115 0.773308 -0.132471
0.0214449 0.791111 -0.0897238
0.0209594 0.812038 -0.0942046
0.0205208 0.833007 -0.0975276
0.0764903 0.831077 -0.177434
0.0298117 0.780101 -0.0945485
0.0524117 0.787425 -0.120313
0.0686214 0.784706 -0.133316
0.0860965 0.781328 -0.143846
0.0284074 0.800744 -0.100554
0.0267939 0.821735 -0.105514
0.0369438 0.789662 -0.105446
0.0576831 0.79592 -0.132139
0.0739126 0.792249 -0.144921
0.0918684 0.788907 -0.155043
0.0343878 0.810296 -0.111962
0.0316234 0.831466 -0.117171
0.0351939 0.84097 -0.128983
0.042752 0.798642 -0.117031
0.0626255 0.804488 -0.143955
0.0792363 0.800345 -0.156269
0.0390338 0.819413 -0.123811
0.0478912 0.807691 -0.128812
0.0670909 0.812261 -0.155408
0.084294 0.809273 -0.167598
0.0430832 0.828705 -0.135714
0.0464248 0.837837 -0.14757
0.0521468 0.816461 -0.140717
0.0716682 0.821648 -0.166787
0.0562233 0.825045 -0.15258
0.0599123 0.834043 -0.163821
0.0298893 0.644217 -0.0347785
0.0865413 0.6413 -0.00768568
0.0500017 0.648591 -0.0300164
0.0587691 0.642278 -0.0216235
0.0783174 0.647387 -0.0169478
0.0828945 0.712921 -0.0772207
0.0524669 0.72042 -0.0772276
0.0201308 0.651727 -0.0413168
0.0406914 0.655529 -0.0375107
0.0698846 0.653321 -0.0260416
0.0609331 0.659679 -0.0342178
0.089495 0.657907 -0.0227146
0.0209041 0.670816 -0.0492611
0.031025 0.662783 -0.044181
0.0515984 0.666358 -0.0417554
0.0808767 0.663996 -0.0315721
0.0718561 0.670163 -0.039814
0.0917625 0.673936 -0.0383284
0.0629521 0.711919 -0.0733957
0.0318368 0.681619 -0.0533903
0.0418396 0.673824 -0.0481168
0.052648 0.684183 -0.0535423
0.0623938 0.677004 -0.047089
0.0825751 0.680348 -0.0464665
0.0220886 0.729561 -0.0719127
0.0322316 0.71982 -0.0714482
0.0931127 0.705375 -0.0708949
0.0215682 0.690241 -0.0570896
0.0218922 0.709827 -0.0647035
0.0425886 0.692321 -0.0586453
0.0631916 0.694419 -0.060188
0.0730419 0.686866 -0.0540021
0.0930366 0.689783 -0.0545403
0.073202 0.703672 -0.0683369
0.0426289 0.710871 -0.0690291
0.0322271 0.700563 -0.0625908
0.0529198 0.702135 -0.0655197
0.0833402 0.696713 -0.0618709
0.0219497 0.749827 -0.0786158
0.0956515 0.827983 -0.188043
0.10223 0.838363 -0.198163
0.109923 0.815833 -0.18689
0.116272 0.824714 -0.197348
0.123876 0.803568 -0.184123
0.159312 0.790725 -0.183467
0.180556 0.788725 -0.186283
0.201538 0.786446 -0.1886
0.123815 0.835209 -0.206984
0.16704 0.799406 -0.19332
0.188365 0.79654 -0.196139
0.131112 0.813069 -0.194246
0.145414 0.801463 -0.189494
0.196809 0.80615 -0.20561
0.138599 0.822498 -0.203811
0.153178 0.810982 -0.199236
0.175231 0.808821 -0.202815
0.161177 0.820397 -0.208499
0.183056 0.817214 -0.212255
0.205353 0.815418 -0.214694
0.14673 0.833064 -0.21297
0.169645 0.831026 -0.217362
0.191871 0.828057 -0.220912
0.200915 0.839482 -0.229103
0.254266 0.772364 -0.183081
0.274419 0.770636 -0.184312
0.294355 0.768924 -0.185308
0.209816 0.794918 -0.198235
0.283285 0.778605 -0.194389
0.214293 0.826021 -0.223403
0.222317 0.784689 -0.190274
0.242932 0.782775 -0.191658
0.263036 0.780353 -0.193222
0.292152 0.78677 -0.204194
0.21838 0.804128 -0.207676
0.230812 0.792904 -0.199915
0.251258 0.790307 -0.201632
0.271853 0.78849 -0.20303
0.239604 0.80206 -0.209355
0.260175 0.799457 -0.21118
0.280845 0.797694 -0.212549
0.227109 0.813683 -0.216809
0.223485 0.837543 -0.231652
0.248047 0.810969 -0.218757
0.269167 0.809189 -0.220362
0.289877 0.807509 -0.221767
0.278403 0.819682 -0.229104
0.236135 0.823951 -0.225587
0.257239 0.821355 -0.227597
0.244907 0.83481 -0.234183
0.266579 0.833121 -0.235969
0.287722 0.831547 -0.237441
0.299114 0.818114 -0.230531
0.301165 0.795979 -0.213822
0.303201 0.776894 -0.195411
0.313969 0.76722 -0.18626
0.333695 0.76571 -0.186974
0.353405 0.764668 -0.18774
0.372989 0.763634 -0.188508
0.392455 0.762879 -0.189374
0.31027 0.805749 -0.223221
0.308493 0.829996 -0.239058
0.322991 0.774982 -0.196443
0.342903 0.773598 -0.197235
0.362608 0.772649 -0.198017
0.382108 0.771497 -0.19886
0.312134 0.784906 -0.20539
0.33214 0.783188 -0.20639
0.352088 0.782052 -0.207202
0.371845 0.78111 -0.208055
0.39153 0.780158 -0.208897
0.321311 0.794024 -0.215141
0.341454 0.792662 -0.216169
0.361378 0.791706 -0.217001
0.381111 0.790454 -0.217896
0.319608 0.816097 -0.232243
0.330573 0.804018 -0.224586
0.350761 0.802854 -0.225544
0.370698 0.801918 -0.22646
0.390627 0.800928 -0.227339
0.34 0.814865 -0.2335
0.360154 0.813922 -0.234484
0.380141 0.812635 -0.235478
0.369623 0.826508 -0.242962
0.389798 0.825535 -0.243915
0.329083 0.828279 -0.240803
0.349496 0.827294 -0.241981
0.379306 0.839638 -0.250892
0.399546 0.839331 -0.251633
0.401028 0.790018 -0.21864
0.400237 0.812243 -0.236184
0.431675 0.762036 -0.190586
0.451334 0.761792 -0.190803
0.470965 0.761566 -0.190709
0.490559 0.761326 -0.190307
0.401833 0.771082 -0.199621
0.411973 0.762483 -0.1901
0.421538 0.770612 -0.200348
0.441272 0.770276 -0.200677
0.460982 0.770071 -0.200779
0.480651 0.769877 -0.200618
0.411249 0.779701 -0.209593
0.43113 0.779248 -0.210143
0.450913 0.778957 -0.210393
0.470665 0.778818 -0.210418
0.49037 0.778705 -0.210225
0.420913 0.789512 -0.219348
0.440794 0.789098 -0.219725
0.460632 0.788981 -0.219878
0.480419 0.788881 -0.219839
0.410563 0.800487 -0.227985
0.430589 0.800051 -0.228565
0.450507 0.799747 -0.228858
0.470382 0.799693 -0.228948
0.4902 0.799666 -0.22888
0.409922 0.825174 -0.244581
0.420302 0.811789 -0.236885
0.440323 0.811324 -0.237336
0.46028 0.811299 -0.23752
0.480175 0.811289 -0.237586
0.430086 0.824752 -0.245172
0.450122 0.82444 -0.245523
0.470101 0.824471 -0.245646
0.490014 0.824514 -0.245667
0.419783 0.838964 -0.25234
0.439919 0.838464 -0.252879
0.459981 0.838511 -0.253034
0.479971 0.838564 -0.253106
0.500038 0.769698 -0.200204
0.0985245 0.611676 0.0259886
0.102278 0.629337 0.011455
0.110082 0.623086 0.0211306
0.12178 0.633694 0.0151234
0.12974 0.627136 0.0247654
0.141451 0.637277 0.0175695
0.100461 0.72954 -0.0975669
0.102499 0.71398 -0.0805309
0.111283 0.72183 -0.0909209
0.108436 0.737263 -0.108479
0.119675 0.729721 -0.101719
0.121842 0.715172 -0.0831649
0.130514 0.722559 -0.0938916
0.12763 0.737087 -0.112727
0.14097 0.716079 -0.0852754
0.13885 0.730048 -0.10482
0.159927 0.717119 -0.0870576
0.178769 0.717777 -0.0885146
0.188598 0.711596 -0.0787577
0.149635 0.723075 -0.0959
0.168563 0.723506 -0.0978864
0.187441 0.723689 -0.0992626
0.146922 0.736643 -0.115422
0.158018 0.730105 -0.106831
0.177022 0.730232 -0.10875
0.195968 0.730089 -0.110099
0.166079 0.736519 -0.117735
0.185222 0.736218 -0.11953
0.197517 0.718097 -0.0896875
0.204299 0.735856 -0.120953
0.207237 0.712007 -0.0798271
0.206238 0.72372 -0.100481
0.214859 0.729819 -0.111356
0.216203 0.718211 -0.0908423
0.225888 0.712018 -0.0809022
0.225025 0.723413 -0.101469
0.223353 0.735205 -0.122141
0.244596 0.711659 -0.0819963
0.253681 0.717213 -0.0928647
0.263289 0.711 -0.0827623
0.282036 0.710562 -0.0836402
0.2724 0.716372 -0.0935645
0.29121 0.715708 -0.0944438
0.234934 0.717795 -0.091882
0.243876 0.722606 -0.102577
0.262599 0.721648 -0.103341
0.281432 0.720898 -0.104164
0.233773 0.729057 -0.112312
0.252701 0.728129 -0.113347
0.26137 0.732565 -0.123759
0.271514 0.726902 -0.114099
0.290428 0.725966 -0.114987
0.280342 0.731513 -0.124593
0.242411 0.734064 -0.122951
0.251101 0.739185 -0.13317
0.270088 0.737593 -0.134228
0.289172 0.736586 -0.135238
0.0970096 0.745853 -0.113959
0.098421 0.770876 -0.141044
0.0975827 0.797801 -0.166353
0.116075 0.745095 -0.119645
0.135373 0.74476 -0.123767
0.154725 0.743807 -0.12625
0.174064 0.743402 -0.128684
0.193373 0.742775 -0.1304
0.104123 0.753567 -0.125223
0.103585 0.806544 -0.176707
0.10488 0.778482 -0.152102
0.12336 0.752314 -0.13056
0.142808 0.751241 -0.134462
0.162331 0.750441 -0.137211
0.181915 0.74972 -0.139468
0.170017 0.757266 -0.147873
0.189947 0.756125 -0.149811
0.11107 0.761219 -0.136302
0.193402 0.778389 -0.178698
0.138118 0.792577 -0.179488
0.130504 0.759816 -0.141573
0.150216 0.758357 -0.145348
0.157554 0.765188 -0.155936
0.177737 0.763644 -0.158018
0.117722 0.768242 -0.14748
0.110985 0.786675 -0.163247
[...]
POINT_DATA 7575
VECTORS alpha float
-0.000157609 -0.00285806 0.000818161
-0.000169592 -0.00269795 0.000844271
-0.000174638 -0.00250232 0.000846389
-0.000169314 -0.00227675 0.000820693
-0.000154595 -0.00202533 0.00076793
-0.000147559 -4.33098e-05 -0.000130266
-0.000182002 -5.60673e-05 -0.000152422
-0.000216744 -6.7547e-05 -0.000167004
-0.000127346 -0.00149262 0.000539758
-0.000134888 -0.00136333 0.000543665
-0.000332712 -0.00011216 -0.000248746
-0.000251517 -7.66506e-05 -0.00017195
-0.000133274 -0.00121797 0.000530639
-0.000386904 -0.000130057 -0.000255226
-8.49274e-05 -0.000610998 0.000299839
-0.00013287 -0.00174997 0.000694351
-0.000106876 -0.00145664 0.000597707
-0.000285786 -8.27572e-05 -0.000167225
-0.000122686 -0.00105795 0.00050051
-8.23744e-05 -0.00053877 0.000294746
-0.000453913 -0.000149444 -0.000261972
-7.8573e-05 -0.00114688 0.000481705
-5.11147e-05 -0.000821479 0.000349967
-0.00010376 -0.000887992 0.000449935
-0.000440422 -0.000141731 -0.000246567
-0.000513994 -0.000165492 -0.000250552
-5.54779e-05 -0.00030513 0.000187805
-0.000557338 -0.000163322 -0.000220473
-0.000318257 -8.5124e-05 -0.000151924
-0.000347489 -8.27233e-05 -0.000126763
-0.000490866 -0.000146655 -0.000222617
-7.3487e-05 -0.00046145 0.000278319
-5.15897e-05 -0.000267756 0.00018593
-3.33647e-05 -0.000156514 0.000121891
-7.96248e-05 -0.000711467 0.00038086
-5.38771e-05 -0.000529042 0.000296056
-5.94361e-05 -0.000381834 0.000250249
-0.000569472 -0.000173457 -0.000223686
-4.37371e-05 -0.000229229 0.000176505
-0.000611916 -0.000172238 -0.00019295
-0.000536384 -0.000143496 -0.00018331
-0.000618982 -0.000169698 -0.000180655
-2.92247e-05 -0.000137238 0.00012039
-0.000345894 -6.44582e-07 0.000154414
-2.23635e-05 0.000459739 -0.000240355
-0.000668367 -2.06274e-05 0.000168914
-0.000709397 -2.45689e-05 0.000152275
-0.000537765 8.76637e-06 0.000232876
-1.2385e-05 0.000128389 -8.9852e-05
-1.28366e-06 9.1727e-06 -8.06072e-06
-0.000627235 1.50653e-05 0.000241962
-0.000676263 1.18644e-05 0.000215291
-5.38142e-05 0.000671726 -0.000318552
-3.28139e-05 0.000223608 -0.000142347
-1.11116e-05 5.39438e-05 -4.31972e-05
-0.00030721 1.02739e-05 0.000193664
-0.000480052 3.07117e-05 0.000291253
-0.000569602 4.29963e-05 0.000302616
-0.000629177 4.31939e-05 0.000270386
-6.01936e-05 0.000321979 -0.000180862
-2.62566e-05 0.000102193 -7.19364e-05
-5.99447e-06 1.95897e-05 -1.64051e-05
-2.21492e-05 6.00796e-05 -2.99469e-05
-3.69919e-05 0.00171558 -0.000478539
-9.22909e-05 0.000882796 -0.000369507
-0.0004113 4.57445e-05 0.000333687
-0.000500094 6.28718e-05 0.000348855
-0.000571082 6.81225e-05 0.000314028
-5.20281e-05 0.00206278 -0.000472625
-5.98293e-05 0.00237498 -0.000431237
-5.86933e-05 0.00264873 -0.000342696
-0.000438121 7.33924e-05 0.000297519
-0.000260597 1.77034e-05 0.000222486
-9.14483e-05 0.000423069 -0.000199717
-4.52093e-05 0.000154088 -9.15553e-05
-1.59086e-05 4.58499e-05 -3.23866e-05
-0.00020959 2.11532e-05 0.000237063
-0.000158086 1.86614e-05 0.000237206
-0.000134337 0.00109191 -0.000383334
-0.00042294 7.22817e-05 0.000375435
-0.000504785 8.49911e-05 0.000338614
-0.000572441 8.03717e-05 0.000278231
-0.000168945 0.00129199 -0.000360996
-0.0001933 0.00147556 -0.000301098
-0.000186204 3.91999e-05 0.000339013
-0.000334921 5.32031e-05 0.000356569
-6.47663e-05 0.00021096 -0.000100268
-2.73948e-05 7.60871e-05 -4.31203e-05
-0.000258251 5.04698e-05 0.000357982
-0.000120275 0.000524902 -0.000198388
-0.000432159 8.80733e-05 0.000348308
-0.000509636 8.2132e-05 0.000295279
-0.000142815 0.000625553 -0.000173596
-0.000263969 6.01702e-05 0.000367978
-0.000342047 7.09229e-05 0.000382486
-3.85885e-05 0.000109503 -4.63964e-05
-8.23169e-05 0.000270583 -9.56678e-05
-0.000354611 7.48572e-05 0.000346004
-0.000371765 -7.54999e-05 -9.06339e-05
-0.000658637 -0.000169894 -0.000151359
-0.000573781 -0.00013018 -0.000129357
-4.21621e-05 -0.000299392 0.000210806
-3.26683e-05 -0.000189638 0.000159347
2.19044e-06 -3.24473e-05 3.02479e-05
-0.000579399 -1.93013e-05 0.00016184
-2.5411e-05 -0.000481026 0.000205368
-2.76942e-05 -0.000340101 0.000196688
-0.000658956 -0.00015449 -0.000121944
-2.40372e-05 -0.000216177 0.000160651
-0.000695926 -0.000157793 -9.86893e-05
-5.23745e-06 -0.000129111 5.42514e-05
-0.000388396 -6.40107e-05 -4.54684e-05
-0.00059943 -0.000109548 -6.26148e-05
-2.02714e-05 -0.000149844 0.000134873
-0.000686 -0.000129458 -5.63921e-05
-0.000720367 -0.000132307 -4.18536e-05
-1.53334e-06 3.77652e-05 -2.81089e-05
-0.000395529 -4.94479e-05 3.56929e-06
-8.11119e-06 -0.000148399 8.66109e-05
-0.00061072 -8.20195e-05 9.29821e-06
-9.21425e-06 -0.000133394 0.000101756
-9.02303e-06 -0.000110899 0.000104188
2.56164e-07 0.000978569 -0.000349324
-0.000374136 -1.5154e-05 0.000107065
-0.000728109 -6.46071e-05 8.88663e-05
6.59655e-06 0.000233792 -9.48832e-05
7.53501e-06 0.000603981 -0.000232435
1.14682e-06 4.904e-05 -2.8191e-05
-9.1487e-07 -4.91334e-05 3.74039e-05
-0.000698113 -9.72465e-05 1.63585e-05
-0.000732063 -0.000103612 2.36371e-05
-0.000692223 -5.98531e-05 9.28437e-05
-3.24443e-06 0.000251483 -0.000139896
-0.000390835 -3.24013e-05 5.60361e-05
-0.000604168 -5.11723e-05 8.63712e-05
-7.70568e-07 -7.20529e-05 6.85781e-05
-2.05181e-05 0.00135438 -0.000432519
-0.000504943 6.65798e-05 0.000236564
-2.89448e-05 8.92452e-05 -3.79494e-05
-2.56979e-05 7.18709e-05 -4.08937e-05
-0.000555274 5.38967e-05 0.000177506
-0.000613143 5.60852e-05 0.000169325
-3.71785e-05 0.000115815 -9.87125e-05
-3.74718e-05 0.000131987 -0.000117673
-3.22982e-05 0.000133418 -0.000123485
-3.78218e-05 0.000127372 -6.06404e-05
-0.000646257 5.14605e-05 8.94412e-05
-0.000651381 4.745e-05 6.40399e-05
-3.54486e-05 0.000106314 -6.71366e-05
-0.000634844 5.23527e-05 0.000122921
-3.57909e-05 0.000162336 -0.000119827
-0.00057785 5.07477e-05 0.000131318
-4.14766e-05 0.000139556 -9.40216e-05
-4.16022e-05 0.000159021 -0.000112526
-0.000586577 5.00431e-05 9.76012e-05
-0.000593229 4.04001e-05 7.02553e-05
-0.000587878 4.81538e-05 5.80484e-05
-4.3456e-05 0.000165112 -8.48098e-05
-4.30748e-05 0.000189085 -0.000102165
-3.70247e-05 0.000195074 -0.000110152
-0.000511387 3.86566e-05 5.7263e-05
-0.000705586 5.86711e-05 4.71778e-05
-0.000708241 6.11956e-05 3.91794e-05
-0.000710065 5.94433e-05 3.26081e-05
-0.000649934 5.51017e-05 5.4189e-05
-1.0394e-05 7.80185e-05 -7.93794e-05
-2.90084e-05 0.000184349 -0.000107254
-2.51438e-05 0.000124276 -0.000117996
-1.89442e-05 0.00010931 -0.000106202
-1.42132e-05 9.3004e-05 -9.27388e-05
-0.000646991 5.39988e-05 3.52423e-05
-2.78508e-05 0.000152166 -0.000115337
-0.000648993 5.96104e-05 4.64226e-05
-0.00064881 5.67115e-05 4.74174e-05
-0.000648105 5.68694e-05 4.10937e-05
-2.07706e-05 0.00013498 -0.000104899
-1.54679e-05 0.000116167 -9.24641e-05
-1.11997e-05 9.81494e-05 -7.93166e-05
-0.000583596 5.32299e-05 4.81526e-05
-0.000502505 4.17993e-05 4.93072e-05
-0.000580169 4.9295e-05 4.68883e-05
-0.000575567 4.81043e-05 4.14461e-05
-0.000571305 4.49503e-05 3.69379e-05
-1.14443e-05 0.000121546 -7.55014e-05
-2.1381e-05 0.000164939 -9.83749e-05
-1.59119e-05 0.000143179 -8.75102e-05
-0.000498933 3.96113e-05 4.26541e-05
-0.000490896 3.80276e-05 3.90736e-05
-0.000483728 3.47344e-05 3.48662e-05
-7.89228e-06 0.000103356 -6.45966e-05
-7.77897e-06 8.33181e-05 -6.79405e-05
-7.21154e-06 6.56106e-05 -6.77766e-05
-0.000713924 5.21715e-05 3.37899e-05
-0.000716888 4.72498e-05 2.81016e-05
-0.000717943 3.97178e-05 3.10325e-05
-0.000719993 2.96241e-05 2.68811e-05
-0.000724247 1.40564e-05 2.81754e-05
-0.000568706 3.98003e-05 3.74602e-05
-0.00047814 2.82226e-05 3.54603e-05
-5.08939e-06 5.57934e-05 -5.86279e-05
-3.77676e-06 4.81623e-05 -5.119e-05
-2.71822e-06 4.18625e-05 -4.46356e-05
-2.02049e-06 3.59378e-05 -3.86126e-05
-0.00064819 4.75518e-05 3.58786e-05
-0.000649499 4.02443e-05 3.31284e-05
-0.000649199 3.3727e-05 3.19912e-05
-0.000649416 2.51419e-05 2.77446e-05
-0.000653736 1.42637e-05 2.50702e-05
-5.41479e-06 7.10664e-05 -5.89234e-05
-3.94409e-06 6.13746e-05 -5.13817e-05
-2.78179e-06 5.32924e-05 -4.46731e-05
-2.04606e-06 4.57593e-05 -3.86063e-05
-5.36408e-06 8.87106e-05 -5.60186e-05
-0.000570115 3.1232e-05 3.36331e-05
-0.000568605 2.79013e-05 2.84897e-05
-0.000566724 2.02291e-05 2.50287e-05
-0.000571157 1.15819e-05 2.15105e-05
-3.83531e-06 7.66184e-05 -4.87708e-05
-2.65492e-06 6.64213e-05 -4.2311e-05
-1.88677e-06 5.70562e-05 -3.65604e-05
-0.000474847 1.56086e-05 2.29972e-05
-0.000478586 8.32599e-06 1.76017e-05
-0.000480766 2.14161e-05 3.05345e-05
-0.000477833 1.96402e-05 2.60458e-05
-1.60201e-06 6.7541e-05 -3.1516e-05
-1.08835e-06 5.64962e-05 -2.63797e-05
-1.39475e-06 3.82291e-05 -3.24205e-05
-1.28012e-06 4.76836e-05 -3.06468e-05
-0.000727924 1.0735e-05 1.13988e-05
-0.000728092 8.01619e-06 2.27597e-06
-0.000727685 8.62366e-06 -9.25556e-06
-0.000726689 9.21525e-06 -2.05639e-05
-1.37403e-06 3.00127e-05 -3.24955e-05
-0.0007259 1.40175e-05 2.12955e-05
-8.51653e-07 2.41839e-05 -2.62397e-05
-4.9749e-07 1.82055e-05 -1.98632e-05
-2.26357e-07 1.21796e-05 -1.331e-05
-5.99265e-08 6.12809e-06 -6.67454e-06
-0.000654208 1.29835e-05 1.87457e-05
-0.000656184 1.02382e-05 1.00903e-05
-0.000655935 4.88972e-06 4.5046e-06
-0.000655166 4.17116e-06 -2.82324e-06
-0.000653936 3.30233e-06 -9.98057e-06
-8.573e-07 3.08193e-05 -2.61593e-05
-5.02581e-07 2.32286e-05 -1.98201e-05
-2.32104e-07 1.55418e-05 -1.32654e-05
-6.40638e-08 7.81748e-06 -6.64073e-06
-0.00057086 1.13784e-05 1.6405e-05
-0.000571903 8.68026e-06 1.02486e-05
-0.000571468 1.80301e-06 4.87135e-06
-0.000570439 1.1583e-06 2.74372e-07
-0.000569114 3.84792e-07 -4.18556e-06
-0.000477343 8.30606e-06 1.54171e-05
-7.84604e-07 3.85031e-05 -2.4697e-05
-4.65512e-07 2.90827e-05 -1.87301e-05
-2.21913e-07 1.94497e-05 -1.25169e-05
-6.63554e-08 9.77116e-06 -6.25209e-06
-0.00047781 7.69103e-06 1.00999e-05
-0.000477294 -6.99092e-07 4.14924e-06
-0.000476084 -8.81402e-07 1.68309e-06
-0.000474753 -1.18495e-06 -6.50194e-07
-6.51206e-07 4.56654e-05 -2.12438e-05
-3.96404e-07 3.45366e-05 -1.61412e-05
-1.93852e-07 2.30736e-05 -1.07612e-05
-6.1533e-08 1.15646e-05 -5.35927e-06
-7.75052e-12 1.54092e-08 -1.66443e-08
-0.000585204 -0.000146885 -0.000172381
-0.000636319 -0.000156695 -0.000146935
-2.00084e-05 -9.21609e-05 7.86202e-05
-0.000651925 -0.000131381 -0.000102922
-1.18909e-05 -5.62829e-05 5.14957e-05
-0.000664987 -0.000106451 -6.50432e-05
4.20215e-06 -2.43571e-05 2.55294e-05
3.82139e-06 -4.34034e-05 4.81866e-05
-0.000727105 -2.73018e-05 0.000129372
-0.000703117 5.01605e-06 0.000179156
3.15713e-06 -1.65943e-05 2.00198e-05
2.64069e-06 -2.67752e-05 3.41435e-05
-0.000735114 -2.87606e-05 0.0001048
-0.000718515 -1.83731e-06 0.000141883
1.73265e-07 -1.65153e-06 2.35374e-06
-1.30184e-06 6.59999e-06 -8.94335e-06
-2.10994e-06 2.0642e-05 -3.19644e-05
-3.47266e-06 3.54464e-05 -5.81293e-05
-0.000764578 -2.33176e-05 4.59272e-05
-0.000741971 -2.28413e-05 7.61211e-05
-0.000749872 -1.63388e-05 6.33984e-05
-0.000760877 -9.01912e-06 5.3624e-05
-0.00073055 1.08282e-06 9.8437e-05
-5.71469e-06 2.94377e-05 -4.38757e-05
-8.26381e-06 4.54788e-05 -7.17776e-05
-8.65711e-06 5.266e-05 -8.67592e-05
-0.000740122 2.02238e-06 7.81872e-05
-0.000751025 5.62618e-06 6.3525e-05
-3.69552e-06 4.18708e-05 -7.1502e-05
-0.000763252 1.6182e-05 5.66299e-05
-0.000779377 -8.41248e-06 4.6169e-05
-0.000774775 4.4781e-06 5.07136e-05
-7.65086e-06 5.22237e-05 -8.89235e-05
-3.26915e-06 4.15706e-05 -7.31671e-05
-0.000795676 3.91373e-06 4.50105e-05
-0.000789976 1.76511e-05 4.63339e-05
-0.000776246 2.83262e-05 5.21338e-05
-0.000811839 1.12755e-05 4.39063e-05
-1.93067e-06 3.08497e-05 -5.76074e-05
-0.00082801 2.51037e-05 3.49318e-05
-0.000841587 2.47474e-05 3.9273e-05
-1.32154e-06 2.48032e-05 -4.79628e-05
-9.87625e-07 2.00289e-05 -3.98123e-05
-2.61744e-06 3.7045e-05 -6.7102e-05
-0.000804712 2.73904e-05 4.39674e-05
-0.000818821 3.87887e-05 3.34897e-05
-0.000831717 3.80075e-05 3.82735e-05
-6.07758e-06 4.68794e-05 -8.23829e-05
-4.53499e-06 3.9483e-05 -7.15927e-05
-0.000800881 4.97353e-05 3.51833e-05
-3.13423e-06 3.2048e-05 -6.02403e-05
-2.34443e-06 2.60746e-05 -5.02735e-05
-0.000812748 4.83205e-05 3.76931e-05
-0.000789875 3.90969e-05 4.39484e-05
-7.89776e-06 5.05204e-05 -8.46295e-05
-5.79058e-06 4.12878e-05 -7.16983e-05
-4.30908e-06 3.38288e-05 -6.00986e-05
8.89126e-07 -3.58122e-06 3.4133e-06
-0.000625381 6.29873e-05 0.00025565
-1.51849e-05 4.01211e-05 -2.59473e-05
1.47173e-06 -5.43787e-06 5.95697e-06
-4.39501e-06 1.58484e-05 -1.95761e-05
-1.09437e-05 3.9538e-05 -5.42599e-05
-1.47044e-05 5.74403e-05 -8.33984e-05
-1.52027e-05 6.5729e-05 -9.97242e-05
-0.000668593 3.49075e-05 0.00022228
-0.000569563 7.20251e-05 0.000229896
-8.23527e-06 2.22939e-05 -1.80523e-05
-0.000695195 2.70707e-05 0.000168332
-0.000711615 2.25597e-05 0.000123896
-0.000724898 2.07653e-05 9.29219e-05
-0.000736565 2.39402e-05 7.12844e-05
-2.2291e-05 7.32173e-05 -9.26888e-05
-2.27799e-05 8.37608e-05 -0.00011046
-2.43537e-06 7.32535e-06 -7.05657e-06
-0.000694886 4.80937e-05 5.85966e-05
-3.09366e-05 8.68705e-05 -6.96903e-05
-9.00382e-06 2.64986e-05 -2.87988e-05
-1.73304e-05 5.23952e-05 -6.26626e-05
-0.000705994 4.11113e-05 0.000100434
-0.000718923 4.13932e-05 6.90207e-05
-0.000663945 5.67757e-05 0.000191492
-0.000622647 7.03966e-05 0.000213436
-0.000688435 4.37377e-05 0.000140817
-2.42529e-05 6.86302e-05 -6.83062e-05
-3.10762e-05 0.00010702 -0.000117247
-3.02788e-05 9.38695e-05 -9.87898e-05
-2.05784e-05 5.52942e-05 -4.00617e-05
-0.000689717 4.97877e-05 7.70517e-05
-1.46105e-05 3.97885e-05 -3.59971e-05
-0.000676847 5.1916e-05 0.000107174
-0.000656561 5.60627e-05 0.000154481
-0.00070183 6.48599e-05 4.18442e-05
-1.33611e-05 6.54151e-05 -0.000102849
-0.000758019 4.80152e-05 4.12064e-05
-1.06158e-05 5.91294e-05 -9.6194e-05
-0.000768085 6.00191e-05 3.32371e-05
-0.000776172 4.60506e-05 5.15303e-05
-0.000786804 4.80812e-05 4.50038e-05
-0.000726271 4.58853e-05 5.07116e-05
-0.000698005 5.91715e-05 4.63303e-05
-0.000747089 3.19623e-05 5.50253e-05
-1.97818e-05 8.33644e-05 -0.000115056
-0.00075927 5.45154e-05 3.43366e-05
-0.000753586 5.7125e-05 3.96889e-05
-1.2208e-05 6.61288e-05 -9.54912e-05
-1.55837e-05 7.64722e-05 -0.000108046
-9.10399e-06 5.50515e-05 -8.20794e-05
-6.72283e-06 4.54316e-05 -6.92135e-05
-8.90959e-06 6.06345e-05 -7.57015e-05
-1.21507e-05 7.28174e-05 -8.91075e-05
-0.000733082 5.71637e-05 4.24879e-05
-0.000747 5.30703e-05 4.79868e-05
-0.000741165 6.38335e-05 3.78885e-05
-2.70233e-05 0.000106975 -0.000121956
-1.60558e-05 8.69546e-05 -0.000102744
-2.1146e-05 9.94228e-05 -0.000115609
-2.28246e-05 -0.000117933 0.000114426
-1.51283e-05 -9.91348e-05 0.000103459
-0.000679251 -0.000154817 -0.000112547
-1.7621e-05 -8.02363e-05 7.81978e-05
-0.000689826 -0.000130546 -7.36989e-05
-9.78493e-06 -4.54898e-05 4.78939e-05
-5.31228e-06 -2.65128e-05 2.93169e-05
-0.000678317 -8.61037e-05 -3.40864e-05
-3.30868e-06 -1.79053e-05 2.05244e-05
-0.000695374 -5.98075e-05 -9.43194e-06
-2.56486e-06 -1.55564e-05 1.83172e-05
-0.000747261 -4.76314e-05 5.47037e-05
-0.000753747 -3.60235e-05 4.97858e-05
-7.05769e-06 -8.01478e-05 8.83866e-05
-3.70121e-07 -6.18482e-05 6.96147e-05
-0.000710906 -0.000143516 -7.07815e-05
-1.38749e-05 -6.84669e-05 7.45113e-05
-6.99931e-06 -3.53907e-05 4.18642e-05
-0.0006988 -0.000107684 -4.18151e-05
-2.80047e-06 -1.50179e-05 1.8782e-05
-0.000710153 -8.56279e-05 -1.69772e-05
-0.000725934 -5.82849e-05 2.70947e-06
-7.6813e-07 -4.43362e-06 5.75716e-06
-0.000743575 -5.6611e-05 6.93994e-05
-0.000740544 -6.04713e-05 7.79645e-05
-0.000731848 -0.000124631 -2.29775e-05
-0.000742296 -9.7931e-05 2.9454e-05
-9.25992e-06 -5.75675e-05 6.79884e-05
-0.000717734 -0.000123221 -3.89662e-05
-4.14755e-06 -2.61895e-05 3.39087e-05
-0.00072301 -0.000101275 -1.72786e-05
-0.000731917 -7.84747e-05 6.39833e-07
-0.000745524 -5.34717e-05 1.34213e-05
-1.04e-07 -6.75324e-07 9.01188e-07
-4.33996e-06 -4.69269e-05 5.87798e-05
-0.00073563 -0.00010921 -3.88629e-06
-0.00073849 -8.896e-05 8.19895e-06
-7.3865e-07 -4.95048e-06 6.83348e-06
-0.000745609 -6.70514e-05 1.77764e-05
9.81505e-07 7.09043e-06 -1.02096e-05
-0.000758161 -4.89261e-05 2.56107e-05
-1.25298e-07 -3.67548e-05 4.73297e-05
-0.000744771 -8.58054e-05 3.33267e-05
-1.60164e-06 -1.75687e-05 2.42807e-05
-0.000752725 -5.38978e-05 3.70066e-05
-0.000746868 -6.88703e-05 3.25239e-05
3.5299e-07 4.08193e-06 -6.03345e-06
1.32187e-06 1.7101e-05 -2.66947e-05
-6.79731e-08 1.24184e-05 -1.91415e-05
-2.02263e-07 2.63287e-05 -4.2845e-05
-6.92704e-09 -9.5179e-06 1.36484e-05
-0.00076398 -3.88888e-05 4.08526e-05
-0.000711558 -3.70756e-05 5.59826e-06
-2.29255e-06 -1.61063e-05 1.9343e-05
-0.000724976 -3.2101e-05 1.51328e-05
-0.000738121 -3.0884e-05 2.67252e-05
-0.000750782 -2.82434e-05 3.03867e-05
-0.000761977 -2.25142e-05 2.62044e-05
1.44648e-06 1.18622e-05 -1.76015e-05
1.5286e-06 2.24931e-05 -3.6392e-05
-1.6982e-07 3.2199e-05 -5.45723e-05
-0.000741975 -3.48183e-05 1.53358e-05
-0.000756668 -3.08739e-05 2.55932e-05
-2.05778e-06 -1.70716e-05 2.10642e-05
-0.000770716 -2.80173e-05 3.365e-05
-1.8101e-06 -1.73337e-05 2.17677e-05
-1.53553e-06 -1.63207e-05 2.08743e-05
-1.16894e-06 -1.42961e-05 1.85053e-05
-0.000785897 -2.21195e-05 3.75308e-05
-0.000798359 -1.84215e-05 3.44544e-05
-1.08602e-07 1.4766e-05 -2.86794e-05
-0.000761703 -3.35379e-05 2.39233e-05
-1.20371e-07 -9.15925e-07 1.24964e-06
-0.000777732 -2.86008e-05 3.40716e-05
-2.97757e-07 -2.71823e-06 3.7938e-06
-0.000792696 -2.25901e-05 3.73736e-05
-4.2582e-07 -4.41938e-06 6.28152e-06
-0.000809648 -1.22388e-05 4.0143e-05
-0.00082196 -1.12989e-05 4.16257e-05
-4.46386e-07 -5.14799e-06 7.48674e-06
-3.57058e-07 -4.83213e-06 7.14394e-06
-1.9019e-07 2.32242e-05 -4.2553e-05
-1.44847e-07 1.84296e-05 -3.48089e-05
-0.000773813 -2.88522e-05 3.36996e-05
-0.000778819 -2.15127e-05 4.25867e-05
1.21381e-06 1.1787e-05 -1.78661e-05
-0.000790983 -2.08444e-05 4.17163e-05
7.94746e-07 9.27575e-06 -1.44041e-05
4.87026e-07 6.34248e-06 -1.00652e-05
2.79207e-07 4.06374e-06 -6.62393e-06
1.63669e-07 2.89722e-06 -4.80981e-06
-0.000823754 -1.9934e-06 3.99852e-05
-1.50143e-07 3.21327e-05 -5.58059e-05
-1.62313e-07 2.83017e-05 -5.04605e-05
1.31338e-06 2.24819e-05 -3.71756e-05
9.67172e-07 1.93143e-05 -3.27943e-05
6.52537e-07 1.52907e-05 -2.66412e-05
4.14396e-07 1.17202e-05 -2.09856e-05
2.60402e-07 9.27301e-06 -1.69825e-05
-0.000807709 -1.15529e-05 4.32609e-05
-0.000837381 -4.75712e-06 4.63257e-05
-0.000812542 -1.90516e-06 4.46978e-05
-0.000828736 7.34804e-06 4.05932e-05
-0.000842753 6.18331e-06 4.33482e-05
-0.000795667 -8.5488e-06 4.4318e-05
-0.000854308 2.4144e-05 4.10833e-05
-0.00084382 3.49355e-05 4.211e-05
-0.000823526 4.14142e-05 4.42979e-05
-7.92444e-07 1.65234e-05 -3.38136e-05
-1.76313e-06 2.15251e-05 -4.26293e-05
-3.14912e-06 2.79754e-05 -5.09135e-05
-0.000866863 1.69658e-05 3.73001e-05
-6.56926e-07 1.41701e-05 -2.97327e-05
-0.000874417 1.09753e-05 4.22312e-05
-0.000880276 8.42561e-06 3.57005e-05
-0.000886526 8.27955e-06 2.78891e-05
-0.000891576 1.20832e-05 1.51933e-05
-5.46735e-07 1.24842e-05 -2.68477e-05
-4.04511e-07 1.11165e-05 -2.42765e-05
-2.09179e-07 9.65996e-06 -2.15767e-05
-0.000856234 2.52322e-05 4.09559e-05
-0.000834427 3.2425e-05 4.54568e-05
-0.000863081 2.01055e-05 4.45253e-05
-0.000868601 1.78537e-05 3.84016e-05
-0.000874842 1.64302e-05 2.66946e-05
-0.000879589 1.62946e-05 1.48362e-05
-4.64876e-07 1.2057e-05 -2.60091e-05
-1.36842e-06 1.82794e-05 -3.71161e-05
-0.000840304 2.84957e-05 4.61483e-05
-1.06917e-06 1.59324e-05 -3.30988e-05
-7.94376e-07 1.39989e-05 -2.95446e-05
-0.000845338 2.74007e-05 3.60565e-05
-0.000851068 2.85769e-05 1.74293e-05
-0.000854765 1.85848e-05 1.67185e-05
-2.35604e-06 2.36164e-05 -4.40994e-05
-1.75489e-06 2.04831e-05 -3.9011e-05
-9.15112e-07 1.53059e-05 -3.01767e-05
-0.000822791 9.05152e-06 3.25053e-05
-0.000818637 3.23379e-05 2.21379e-05
-1.23486e-06 1.78309e-05 -3.45472e-05
-0.000814436 5.22313e-05 6.89985e-06
-1.73628e-07 8.18727e-06 -1.85412e-05
-3.5838e-07 1.01374e-05 -2.2177e-05
-6.71167e-07 1.28151e-05 -2.55932e-05
-5.56356e-08 5.48219e-06 -1.21897e-05
-3.60812e-08 4.12248e-06 -9.32661e-06
-2.37058e-08 2.77012e-06 -6.28581e-06
-1.15987e-08 1.41071e-06 -3.16441e-06
-4.41739e-11 5.3148e-09 -1.16774e-08
-0.000897913 8.30557e-06 1.8138e-05
-0.000902293 2.64578e-06 1.56696e-05