# vtk DataFile Version 3.0
vtk output
ASCII
DATASET POLYDATA
POINTS 3535 float
0.000214325 0.0680547 -0.0277547
0.0201762 0.0684038 -0.0292313
0.0401375 0.0687407 -0.0306958
0.0601039 0.0690436 -0.0320473
0.000127027 0.0485517 -0.0319418
0.0201121 0.0487778 -0.0328946
0.0400961 0.048997 -0.0338385
0.0600809 0.0491952 -0.0347091
0.0101102 0.0584472 -0.0306173
0.030086 0.058724 -0.0318154
0.0500639 0.0589831 -0.0329611
6.39162e-05 0.029094 -0.0358977
0.0200596 0.0292153 -0.0364016
0.0400544 0.0293334 -0.0368989
0.0600488 0.0294404 -0.0373539
0.0100544 0.0389022 -0.0344748
0.0300463 0.0390664 -0.035179
0.0500389 0.0392205 -0.0358493
0.080085 0.0692973 -0.0332517
0.100075 0.0694821 -0.034137
0.120073 0.0696097 -0.0347731
0.080077 0.0493577 -0.0354646
0.100072 0.0494792 -0.0360269
0.12007 0.0495643 -0.0364224
0.0700517 0.0592114 -0.0340155
0.0900449 0.0593851 -0.0348305
0.110044 0.0595125 -0.0354373
0.0800517 0.029529 -0.037763
0.10005 0.0295958 -0.0380594
0.120049 0.0296429 -0.0382645
0.0700387 0.0393556 -0.0364652
0.0900379 0.0394607 -0.0369454
0.110039 0.0395383 -0.0373002
0.0101674 0.0780437 -0.02658
0.0301125 0.0784496 -0.0283376
0.0500654 0.0788262 -0.0300241
0.000593171 0.126775 -0.0142248
0.0203828 0.12758 -0.0176224
0.0401782 0.128353 -0.0210085
0.0600132 0.12904 -0.0241404
0.000426407 0.107178 -0.0188409
0.0202898 0.10782 -0.0215574
0.0401583 0.108437 -0.0242651
0.0600534 0.108983 -0.0267675
0.0103618 0.117362 -0.018122
0.0301912 0.118074 -0.0211899
0.0500419 0.118732 -0.0241349
0.000296518 0.0876 -0.0233712
0.0202166 0.0880884 -0.0254282
0.0401407 0.0885566 -0.02748
0.0600813 0.0889713 -0.0293756
0.0102487 0.0976872 -0.0223938
0.0301446 0.09824 -0.0247827
0.0500551 0.0987507 -0.0270757
0.070035 0.0791573 -0.0315629
0.0900215 0.0794097 -0.0327725
0.110025 0.0795903 -0.033683
0.0799179 0.129598 -0.0268215
0.0998876 0.130006 -0.0289287
0.119914 0.13027 -0.0304754
0.0799926 0.10943 -0.0288945
0.0999744 0.109756 -0.0305685
0.119993 0.109969 -0.0317898
0.0699398 0.119296 -0.0267577
0.0898936 0.11973 -0.028896
0.109899 0.120033 -0.0305244
0.0800472 0.0893151 -0.0309961
0.100036 0.0895663 -0.0322565
0.120047 0.0897317 -0.0331696
0.0699955 0.0991895 -0.0291153
0.089969 0.0995289 -0.0307739
0.109975 0.0997672 -0.0320305
0.140106 0.0696831 -0.0353061
0.160114 0.0697226 -0.0355058
0.180126 0.0697339 -0.0355935
0.140093 0.049606 -0.0367687
0.160099 0.0496338 -0.0368892
0.180109 0.049643 -0.0369367
0.130071 0.059596 -0.0359783
0.150077 0.0596418 -0.0361958
0.170089 0.0596611 -0.036304
0.140063 0.0296664 -0.0384611
0.160071 0.0296816 -0.0385198
0.180082 0.0296864 -0.0385376
0.130053 0.0395896 -0.0376313
0.15006 0.0396172 -0.0377546
0.17007 0.0396289 -0.0378116
0.200155 0.0697536 -0.0357705
0.220163 0.0697345 -0.0357413
0.240172 0.0697174 -0.0357262
0.200116 0.0496677 -0.0370904
0.22012 0.0496558 -0.0370596
0.240127 0.049648 -0.0370514
0.190112 0.0596943 -0.0365156
0.210118 0.0596785 -0.0364797
0.230127 0.0596655 -0.0364596
0.200068 0.0297081 -0.0386562
0.220072 0.0296994 -0.0386241
0.24008 0.0296967 -0.0386208
0.190072 0.0396603 -0.0379847
0.210076 0.0396475 -0.0379414
0.230083 0.03964 -0.0379232
0.13998 0.130555 -0.0317153
0.160053 0.130637 -0.0322898
0.180128 0.130653 -0.0326074
0.140039 0.110157 -0.03273
0.160091 0.110227 -0.0331825
0.180144 0.110244 -0.0334292
0.129948 0.120306 -0.0318646
0.150008 0.12042 -0.0325325
0.170076 0.120465 -0.0329214
0.140083 0.0898463 -0.0338531
0.160117 0.089904 -0.034193
0.180151 0.0899214 -0.0343768
0.130009 0.0999505 -0.033031
0.150052 0.100043 -0.0335478
0.170099 0.100081 -0.0338456
0.130052 0.0796911 -0.0343379
0.15008 0.0797642 -0.0347164
0.17011 0.0797969 -0.0349335
0.200204 0.130657 -0.0329082
0.220264 0.130602 -0.0328957
0.240314 0.130544 -0.032888
0.200192 0.110262 -0.0337148
0.220235 0.110219 -0.0336925
0.240271 0.110178 -0.0336889
0.190143 0.120503 -0.0333421
0.210202 0.12046 -0.0333316
0.230252 0.120415 -0.0333215
0.200175 0.0899485 -0.0346345
0.220205 0.0899157 -0.0346014
0.240231 0.0898866 -0.0345998
0.190138 0.100127 -0.0342282
0.21018 0.100091 -0.0341977
0.230216 0.100057 -0.0341841
0.190126 0.0798478 -0.0352691
0.210155 0.0798195 -0.0352186
0.23018 0.0797956 -0.0352
0.260156 0.0697107 -0.0359668
0.280159 0.0697141 -0.0359563
0.300163 0.0697193 -0.0359611
0.260105 0.0496282 -0.0371844
0.28011 0.0496295 -0.0371798
0.300115 0.0496339 -0.0371903
0.250115 0.0596501 -0.0366296
0.270121 0.059649 -0.0366195
0.290126 0.0596511 -0.0366237
0.310131 0.0596561 -0.036639
0.260059 0.0296813 -0.0386508
0.280062 0.029683 -0.0386503
0.300065 0.0296866 -0.0386585
0.25007 0.0396252 -0.037966
0.270073 0.0396256 -0.0379649
0.290076 0.0396281 -0.0379722
0.310078 0.0396325 -0.037986
0.320155 0.0697369 -0.0360497
0.340149 0.0697419 -0.0360693
0.360139 0.0697466 -0.0360958
0.320105 0.0496437 -0.0372423
0.340099 0.0496471 -0.0372596
0.360088 0.0496521 -0.0372861
0.330116 0.0596683 -0.0367082
0.350106 0.0596732 -0.0367283
0.370092 0.0596794 -0.0367544
0.320059 0.029691 -0.0386832
0.340056 0.0296937 -0.0386941
0.360051 0.0296975 -0.0387113
0.33007 0.0396378 -0.03802
0.350065 0.0396417 -0.038035
0.370057 0.0396466 -0.038054
0.250165 0.0798037 -0.0354944
0.27017 0.0798094 -0.0354776
0.290172 0.0798194 -0.0354989
0.310171 0.0798331 -0.0355527
0.260369 0.130689 -0.0333144
0.280365 0.130722 -0.0333523
0.300354 0.130752 -0.0334308
0.260285 0.110251 -0.0340412
0.280283 0.110276 -0.0340653
0.300276 0.110302 -0.0341384
0.250305 0.120484 -0.0337
0.270309 0.12051 -0.0337073
0.290306 0.120538 -0.0337638
0.310296 0.120566 -0.0338585
0.260212 0.0899157 -0.0348788
0.280211 0.0899336 -0.0348921
0.300205 0.0899556 -0.0349611
0.250227 0.100085 -0.0344955
0.270232 0.100101 -0.034489
0.29023 0.100123 -0.0345375
0.310223 0.100147 -0.0346327
0.330166 0.0798421 -0.0355933
0.350155 0.0798484 -0.0356215
0.370139 0.0798549 -0.0356708
0.320331 0.13079 -0.0335676
0.340304 0.130799 -0.0335873
0.360271 0.130799 -0.0336146
0.320264 0.110324 -0.0342219
0.340246 0.110334 -0.034248
0.360222 0.110338 -0.0342931
0.330276 0.120589 -0.0339267
0.350252 0.120598 -0.0339564
0.370223 0.1206 -0.0339991
0.320206 0.0899644 -0.0349958
0.340195 0.0899714 -0.0350227
0.360178 0.0899768 -0.0350783
0.330217 0.100154 -0.0346488
0.350201 0.100162 -0.0346867
0.370179 0.100168 -0.0347477
0.38008 0.0697444 -0.0360712
0.400076 0.069761 -0.0360562
0.42007 0.0697734 -0.0360513
0.380045 0.0496453 -0.0372568
0.400045 0.049655 -0.0372402
0.420043 0.049663 -0.0372343
0.39006 0.0596808 -0.0367071
0.410056 0.0596906 -0.0367004
0.430051 0.0596982 -0.036701
0.380024 0.0296873 -0.0387162
0.400024 0.0296922 -0.0387053
0.420023 0.0296969 -0.0387013
0.390035 0.0396395 -0.0380522
0.410033 0.039645 -0.0380476
0.43003 0.03965 -0.038048
0.440063 0.0697829 -0.0360683
0.460055 0.0697865 -0.0360894
0.480046 0.0697863 -0.0361213
0.500013 0.0697824 -0.0361652
0.44004 0.0496703 -0.0372465
0.460037 0.0496736 -0.0372627
0.480033 0.0496754 -0.0372906
0.450045 0.0597042 -0.0367207
0.470038 0.0597066 -0.0367403
0.49003 0.0597072 -0.0367685
0.500001 0.0496759 -0.0373305
0.440021 0.029702 -0.0387074
0.46002 0.029704 -0.038714
0.480018 0.029706 -0.0387282
0.450026 0.0396543 -0.0380583
0.470022 0.0396565 -0.038068
0.490017 0.0396583 -0.0380834
0.380258 0.130831 -0.0336384
0.400226 0.130873 -0.0336497
0.420192 0.130899 -0.0336701
0.380187 0.11035 -0.0343169
0.400167 0.110384 -0.0343133
0.420145 0.110407 -0.0343269
0.390205 0.120639 -0.0340009
0.410178 0.120669 -0.0340141
0.43015 0.120686 -0.0340376
0.380127 0.0899814 -0.0350925
0.400117 0.090007 -0.0350773
0.420104 0.0900252 -0.0350857
0.390145 0.100191 -0.0347289
0.410129 0.100214 -0.0347331
0.430111 0.100228 -0.0347548
0.390097 0.0798655 -0.0355996
0.410089 0.0798822 -0.035597
0.430079 0.0798942 -0.0356171
0.440156 0.130909 -0.0337123
0.460118 0.130901 -0.0337012
0.480079 0.130876 -0.0337006
0.44012 0.110419 -0.0343672
0.460095 0.110416 -0.0343655
0.480068 0.110403 -0.034383
0.450119 0.120691 -0.0340609
0.470088 0.120681 -0.03406
0.490055 0.120659 -0.0340737
0.440089 0.0900375 -0.0351227
0.460074 0.0900375 -0.035125
0.480058 0.0900305 -0.0351536
0.450091 0.100235 -0.0347774
0.470071 0.100231 -0.0347863
0.490049 0.100218 -0.0348165
0.450067 0.0799014 -0.0356346
0.470055 0.0799006 -0.0356466
0.490042 0.0798957 -0.0356848
0.500011 0.130836 -0.0337146
0.500007 0.0900168 -0.0352102
0.010519 0.137044 -0.0137329
0.0302668 0.137922 -0.0174881
0.0500429 0.138738 -0.0211022
0.000827756 0.146352 -0.00943248
0.0205333 0.147323 -0.013496
0.0402432 0.148267 -0.0175555
0.0600073 0.149114 -0.0213158
0.010736 0.156689 -0.00921592
0.0303892 0.157751 -0.0136411
0.0500772 0.158751 -0.0179033
0.00110445 0.165886 -0.00462077
0.0207113 0.167044 -0.00934008
0.0403195 0.168187 -0.014059
0.0599966 0.169228 -0.0184396
0.0109967 0.176294 -0.00466029
0.0305436 0.177561 -0.00972831
0.0501306 0.178774 -0.0146143
0.00143277 0.185359 0.000253734
0.0209357 0.186717 -0.00506966
0.0404353 0.18808 -0.0103942
0.0600172 0.189346 -0.0153457
0.011291 0.195866 -4.94459e-05
0.0307321 0.197347 -0.00570129
0.0502151 0.198795 -0.0111543
0.0698888 0.139443 -0.0242812
0.0898131 0.139987 -0.0269216
0.109813 0.140366 -0.0289489
0.0798641 0.149818 -0.0244691
0.0998112 0.150339 -0.0270263
0.11984 0.150681 -0.0289183
0.069859 0.159623 -0.0216248
0.089744 0.160314 -0.0247528
0.109733 0.160808 -0.027164
0.0798037 0.170097 -0.0220746
0.0997259 0.170763 -0.0250584
0.119756 0.171218 -0.0272787
0.0698437 0.179819 -0.0188486
0.0896863 0.180685 -0.0224342
0.109662 0.181324 -0.0252107
0.0797764 0.190368 -0.0194165
0.0996697 0.191207 -0.0227927
0.119687 0.191823 -0.0253576
0.021196 0.206365 -0.000625199
0.00178997 0.204797 0.00522854
0.0600779 0.20944 -0.0118798
0.0405895 0.207926 -0.0064241
0.0504182 0.218678 -0.00707514
0.0310251 0.216993 -0.00118475
0.060317 0.229356 -0.00790862
0.0408929 0.22762 -0.00212297
0.0507731 0.238314 -0.00278968
0.0607034 0.249068 -0.00352848
0.011679 0.215309 0.00491842
0.0215774 0.22584 0.00409992
0.0314377 0.236499 0.00339613
0.0413181 0.247176 0.00247363
[...]
POINT_DATA 3535
VECTORS alpha float
1.86912e-07 0.00268054 0.000560171
-2.26464e-06 0.00149967 0.00026891
-1.87198e-06 0.000646569 9.71239e-05
-1.10617e-06 0.00028601 3.53655e-05
-1.53695e-06 0.00245958 0.000485554
-2.04887e-06 0.00136355 0.00023379
-1.28417e-06 0.000576173 8.41086e-05
-6.60094e-07 0.000245509 3.01301e-05
-0.000218222 -2.14714e-06 9.15873e-06
-0.000351121 -3.34157e-06 1.45724e-05
-0.000419501 -3.60577e-06 1.60506e-05
-1.41664e-06 0.00220499 0.000403111
-1.21722e-06 0.0012089 0.000195113
-6.28334e-07 0.000498017 6.98947e-05
-2.75543e-07 0.000201756 2.44472e-05
-0.000253918 -1.13698e-06 4.69985e-06
-0.000406573 -1.76539e-06 7.39696e-06
-0.000483315 -1.90258e-06 8.03143e-06
-5.4413e-07 0.000121781 1.19622e-05
-2.98719e-07 6.80529e-05 5.49283e-06
-2.89025e-07 7.43156e-05 5.03982e-06
-2.90108e-07 9.81332e-05 1.00289e-05
-1.50619e-07 5.38448e-05 4.68345e-06
-1.55324e-07 6.48018e-05 4.91195e-06
-0.000458986 -3.11456e-06 1.45846e-05
-0.000482089 -2.492e-06 1.17447e-05
-0.000495943 -1.78214e-06 8.44607e-06
-1.01629e-07 7.32334e-05 7.71129e-06
-4.75539e-08 3.89612e-05 3.61624e-06
-5.15143e-08 5.44351e-05 4.55987e-06
-0.000526378 -1.64897e-06 7.42102e-06
-0.000550918 -1.32556e-06 5.86637e-06
-0.000565549 -9.56708e-07 4.10205e-06
-0.000178796 -2.8793e-06 1.23111e-05
-0.000289819 -4.47753e-06 1.98588e-05
-0.000348897 -4.79013e-06 2.20721e-05
1.27032e-05 0.00309528 0.000720036
-2.61368e-07 0.00176929 0.000347682
-3.31288e-06 0.000797991 0.000128527
-2.76619e-06 0.000381074 4.90052e-05
5.83253e-06 0.00300223 0.000682319
-2.50919e-06 0.00170522 0.000326691
-3.51719e-06 0.000758948 0.000118849
-2.49385e-06 0.000354631 4.42028e-05
-9.182e-05 -2.85828e-06 1.22913e-05
-0.000154087 -4.59129e-06 2.05372e-05
-0.000191914 -5.03974e-06 2.35805e-05
1.26616e-06 0.00286234 0.00063016
-3.30496e-06 0.00161443 0.000300771
-3.04764e-06 0.000708063 0.000108421
-1.92374e-06 0.000322743 3.96558e-05
-0.000136471 -3.17886e-06 1.36254e-05
-0.000223819 -4.98532e-06 2.22632e-05
-0.000272641 -5.35327e-06 2.50033e-05
-0.000384307 -4.2679e-06 2.03031e-05
-0.000405801 -3.3442e-06 1.66557e-05
-0.000418835 -2.28808e-06 1.22645e-05
-1.59567e-06 0.00018138 1.80901e-05
-9.50361e-07 0.000104509 8.13303e-06
-7.99025e-07 9.63743e-05 5.91939e-06
-1.34127e-06 0.000163807 1.59821e-05
-7.7103e-07 9.36075e-05 7.13344e-06
-6.6699e-07 9.02463e-05 5.4511e-06
-0.000217785 -4.58822e-06 2.2538e-05
-0.000235154 -3.59383e-06 1.91155e-05
-0.000246016 -2.38561e-06 1.44976e-05
-9.69607e-07 0.000143818 1.41902e-05
-5.35712e-07 8.14011e-05 6.39646e-06
-4.7696e-07 8.28649e-05 5.28884e-06
-0.000303473 -4.81966e-06 2.34188e-05
-0.000323018 -3.74292e-06 1.94964e-05
-0.000335018 -2.48929e-06 1.45564e-05
-3.36866e-07 0.000104755 5.92046e-06
-3.64059e-07 0.000135309 7.05301e-06
-3.32441e-07 0.000153911 7.67289e-06
-1.8954e-07 9.69491e-05 6.496e-06
-2.13591e-07 0.000127793 8.10479e-06
-2.04156e-07 0.000146153 9.01024e-06
-0.000504985 -1.02483e-06 4.35469e-06
-0.000512092 -4.7822e-07 2.17807e-06
-0.00051866 -6.4859e-08 5.83042e-07
-6.12547e-08 8.78885e-05 6.74005e-06
-7.7014e-08 0.000118608 8.77268e-06
-8.44763e-08 0.000136485 9.92345e-06
-0.000575592 -5.12911e-07 1.85721e-06
-0.000584055 -2.3079e-07 7.31545e-07
-0.000592405 -4.0453e-09 -1.32648e-07
-1.08734e-07 0.000157502 7.70836e-06
-2.57402e-08 0.00014883 7.26432e-06
3.1654e-08 0.000132883 6.52487e-06
-1.08033e-08 0.000149582 9.00092e-06
3.39594e-08 0.000141023 8.47106e-06
6.06695e-08 0.000125541 7.56936e-06
-0.000525074 5.07024e-07 -1.75533e-06
-0.00053194 4.33778e-07 -1.23893e-06
-0.000538771 3.26853e-07 -6.45404e-07
7.9007e-08 0.00013971 9.86153e-06
9.04881e-08 0.000131383 9.26967e-06
9.0056e-08 0.00011657 8.24817e-06
-0.000600728 5.09924e-07 -2.25368e-06
-0.000609679 3.3069e-07 -1.33497e-06
-0.000618484 1.50602e-07 -4.66236e-07
-7.71473e-07 0.000119065 5.42346e-06
-7.32917e-07 0.000146139 5.70779e-06
-5.72543e-07 0.000163893 5.76082e-06
-7.17937e-07 0.000115929 5.3518e-06
-6.98179e-07 0.000144605 5.7978e-06
-5.58567e-07 0.000162919 5.96178e-06
-0.000251932 -1.57886e-06 8.79521e-06
-0.000254618 -6.83392e-07 5.29936e-06
-0.000255459 -4.58939e-08 2.78806e-06
-5.80099e-07 0.00011114 5.74137e-06
-5.71263e-07 0.000140975 6.5095e-06
-4.58148e-07 0.000159568 6.88154e-06
-0.00034209 -1.67959e-06 8.87484e-06
-0.000346234 -7.62356e-07 5.28601e-06
-0.000348951 -1.0511e-07 2.73962e-06
-0.000427101 -1.57617e-06 7.58772e-06
-0.000432745 -7.74806e-07 4.48097e-06
-0.000437405 -1.94893e-07 2.30436e-06
-2.8889e-07 0.000167762 5.78478e-06
-8.53832e-08 0.000159547 5.38342e-06
6.37909e-08 0.000143626 4.82567e-06
-3.00025e-07 0.000166772 5.89332e-06
-1.15343e-07 0.000158286 5.4796e-06
2.29197e-08 0.000142122 4.90059e-06
-0.000255566 6.12534e-07 -5.2122e-07
-0.00025567 6.71401e-07 -5.68392e-07
-0.000256054 6.52457e-07 -3.28006e-07
-2.4717e-07 0.000163349 6.74102e-06
-9.67271e-08 0.000154722 6.27196e-06
1.62856e-08 0.00013856 5.58955e-06
-0.000351232 7.05839e-07 -1.1868e-06
-0.000353558 7.14231e-07 -9.06571e-07
-0.000356059 6.46173e-07 -3.56713e-07
-0.000441951 7.40342e-07 -2.04747e-06
-0.000446576 6.63404e-07 -1.30676e-06
-0.000451277 5.25189e-07 -3.67153e-07
1.71435e-07 0.000114706 5.10235e-06
1.47469e-07 9.72251e-05 4.28884e-06
1.22079e-07 8.22851e-05 3.62838e-06
1.36085e-07 0.000107999 6.18519e-06
1.19539e-07 9.13979e-05 5.21368e-06
1.01605e-07 7.73657e-05 4.41564e-06
-0.000545104 1.20715e-07 -8.59794e-07
-0.000550933 4.45298e-08 -4.16302e-07
-0.000556016 -2.60795e-08 -6.50977e-08
-0.000560305 -9.41209e-08 2.29837e-07
1.2622e-07 9.99173e-05 6.97432e-06
1.08374e-07 8.44216e-05 5.85951e-06
9.07437e-08 7.14863e-05 4.94287e-06
-0.00062648 3.99595e-08 -4.89206e-07
-0.000633785 -1.13123e-08 -2.1052e-07
-0.000640112 -6.04122e-08 2.30429e-08
-0.000645447 -1.08465e-07 2.27694e-07
1.10207e-07 7.01875e-05 2.96799e-06
8.457e-08 6.03627e-05 2.56251e-06
6.23296e-08 5.20386e-05 2.23829e-06
9.08257e-08 6.61139e-05 3.64826e-06
7.21961e-08 5.70271e-05 3.14906e-06
5.57245e-08 4.93219e-05 2.73977e-06
-0.000563496 -3.48632e-08 1.75652e-07
-0.000566249 -7.43226e-08 3.98657e-07
-0.000568448 -1.14199e-07 6.1725e-07
7.57355e-08 6.12171e-05 4.16272e-06
6.04915e-08 5.29871e-05 3.59314e-06
4.69786e-08 4.60015e-05 3.11993e-06
-0.000649676 -3.88945e-08 1.37166e-07
-0.000653232 -7.41123e-08 3.17298e-07
-0.000656124 -1.09165e-07 4.91889e-07
-0.000455573 -3.40137e-09 -1.23241e-06
-0.000459823 -1.01906e-07 -2.77391e-07
-0.000463571 -1.87159e-07 5.4399e-07
-0.000466736 -2.62526e-07 1.27984e-06
3.54102e-07 0.000125156 3.92344e-06
3.14777e-07 0.000106567 3.2411e-06
2.71622e-07 9.02117e-05 2.71252e-06
2.75312e-07 0.00012345 4.00556e-06
2.52246e-07 0.000104958 3.30553e-06
2.22714e-07 8.88385e-05 2.76438e-06
-0.000256381 -2.21412e-07 -5.49915e-07
-0.000257263 -2.59762e-07 1.84058e-07
-0.000258147 -2.73901e-07 7.54867e-07
-0.00025889 -2.68667e-07 1.21598e-06
2.1571e-07 0.000119972 4.63496e-06
2.02623e-07 0.000101857 3.84395e-06
1.82375e-07 8.62144e-05 3.22175e-06
-0.000358325 -1.64799e-07 -1.00423e-06
-0.000360818 -2.53282e-07 8.87097e-08
-0.000363059 -3.20874e-07 1.01884e-06
-0.000364939 -3.72298e-07 1.84349e-06
-0.000469233 -4.88407e-08 1.22695e-07
-0.000471236 -6.08357e-08 6.61814e-07
-0.000472802 -7.17032e-08 1.20805e-06
2.01505e-07 7.66666e-05 2.09748e-06
1.5125e-07 6.54835e-05 1.82587e-06
1.09361e-07 5.60215e-05 1.62635e-06
1.56571e-07 7.55821e-05 2.15999e-06
1.16498e-07 6.46948e-05 1.86581e-06
8.2671e-08 5.54794e-05 1.64908e-06
-0.000259379 -6.54189e-08 1.02178e-07
-0.000259685 6.3234e-09 2.94655e-07
-0.000259812 7.8313e-08 5.04819e-07
1.19329e-07 7.34439e-05 2.57348e-06
8.75048e-08 6.30111e-05 2.21003e-06
6.03767e-08 5.41747e-05 1.93311e-06
-0.000366461 -7.04009e-08 2.2813e-07
-0.000367568 -3.5449e-08 6.85343e-07
-0.000368371 7.32224e-10 1.15798e-06
9.08924e-08 4.45278e-05 1.91749e-06
6.30658e-08 3.72528e-05 1.57397e-06
3.98003e-08 2.99756e-05 1.25493e-06
6.94137e-08 4.23108e-05 2.33222e-06
4.84842e-08 3.54702e-05 1.93349e-06
3.07691e-08 2.85777e-05 1.54932e-06
-0.000570674 -2.40721e-07 -4.66507e-07
-0.000572131 -1.90596e-07 -2.18269e-07
-0.000573264 -1.39331e-07 2.40735e-08
4.93029e-08 3.95822e-05 2.65305e-06
3.49364e-08 3.32645e-05 2.217e-06
2.25395e-08 2.68436e-05 1.78386e-06
-0.000658763 -1.28659e-07 -3.91016e-07
-0.000660683 -1.20363e-07 -1.88508e-07
-0.000662183 -1.11447e-07 9.25695e-09
2.15085e-08 2.25995e-05 9.41859e-07
8.47401e-09 1.51248e-05 6.33262e-07
1.22613e-09 7.5863e-06 3.22339e-07
-3.13637e-15 2.05136e-08 8.92944e-10
1.69309e-08 2.15598e-05 1.16442e-06
6.78249e-09 1.44328e-05 7.80653e-07
1.07104e-09 7.23938e-06 3.94427e-07
-0.000574101 -6.46486e-08 3.76738e-07
-0.000574643 -2.21459e-08 6.44517e-07
-0.000574902 1.80399e-08 9.27632e-07
1.74959e-12 1.85341e-08 1.0229e-09
1.29965e-08 2.02699e-05 1.34201e-06
5.52976e-09 1.35751e-05 8.98582e-07
1.14063e-09 6.81026e-06 4.51902e-07
-0.000663297 -4.73232e-08 1.67888e-07
-0.000664022 -4.70738e-08 3.81705e-07
-0.000664375 -4.65613e-08 5.92731e-07
1.60521e-07 4.76209e-05 1.41528e-06
1.1119e-07 3.96544e-05 1.13634e-06
7.08343e-08 3.18208e-05 8.96524e-07
1.36279e-07 4.72509e-05 1.39558e-06
9.42595e-08 3.94017e-05 1.1208e-06
5.9698e-08 3.16434e-05 8.84282e-07
-0.000259971 -4.11196e-07 -2.21041e-08
-0.000259947 -2.56742e-07 1.49068e-07
-0.000259899 -9.87875e-08 2.99668e-07
1.12916e-07 4.6232e-05 1.61517e-06
7.78928e-08 3.86107e-05 1.30978e-06
4.89252e-08 3.1035e-05 1.03843e-06
-0.000369209 -4.35091e-07 -2.42438e-07
-0.000369669 -2.92818e-07 1.2309e-07
-0.000370008 -1.47586e-07 4.73394e-07
-0.000474383 -3.78576e-07 -5.03365e-07
-0.000475381 -2.81161e-07 7.69958e-08
-0.000476146 -1.81633e-07 6.49273e-07
3.92075e-08 2.39607e-05 6.74004e-07
1.6543e-08 1.60314e-05 4.62559e-07
3.36725e-09 8.04259e-06 2.42662e-07
3.27964e-08 2.38353e-05 6.63226e-07
1.34264e-08 1.59488e-05 4.52283e-07
2.39575e-09 8.00132e-06 2.35968e-07
-0.000259858 7.44656e-08 -1.44756e-07
-0.000259823 2.2327e-07 4.85587e-08
-0.000259799 3.65086e-07 2.79178e-07
2.6642e-08 2.33856e-05 7.77881e-07
1.04623e-08 1.56487e-05 5.26172e-07
1.49147e-09 7.84955e-06 2.7113e-07
-0.000370262 3.98066e-08 -8.79696e-08
-0.00037042 1.74197e-07 3.19944e-07
-0.000370492 3.02795e-07 7.61986e-07
-0.000476724 3.00193e-09 -8.89153e-08
-0.000477092 9.02313e-08 5.54632e-07
-0.000477268 1.73489e-07 1.22444e-06
2.00008e-12 2.63252e-08 8.43439e-10
1.16441e-12 2.30634e-08 8.30188e-10
-4.58482e-05 -1.80085e-06 7.73128e-06
-8.21437e-05 -3.10805e-06 1.38341e-05
-0.000108364 -3.62823e-06 1.68639e-05
2.42705e-05 0.00313539 0.00075272
5.11302e-06 0.00180391 0.000369807
-1.52555e-06 0.00082422 0.000140606
-2.22157e-06 0.000401675 5.58837e-05
4.56363e-07 2.2015e-08 -9.28056e-08
-9.5567e-06 -4.50199e-07 1.94279e-06
-2.3807e-05 -1.00586e-06 4.47273e-06
3.40959e-05 0.0031278 0.000767141
1.01623e-05 0.00181151 0.000384597
3.96959e-07 0.000838405 0.000150867
-1.5244e-06 0.000416635 6.25917e-05
4.63567e-05 2.69741e-06 -1.10117e-05
6.25131e-05 3.61279e-06 -1.4853e-05
6.04202e-05 3.19106e-06 -1.32818e-05
4.36505e-05 0.0030729 0.000766326
1.61433e-05 0.00179157 0.000394337
3.25563e-06 0.000839897 0.000160644
-1.52916e-07 0.000425406 7.00109e-05
9.16546e-05 6.26821e-06 -2.46938e-05
0.000133665 9.27835e-06 -3.60321e-05
0.000143769 9.33988e-06 -3.59062e-05
-0.000128711 -3.48352e-06 1.6889e-05
-0.000143494 -2.81165e-06 1.48857e-05
-0.000152908 -1.88619e-06 1.16222e-05
-1.50346e-06 0.000196214 2.20316e-05
-9.3046e-07 0.000113931 1.03847e-05
-7.47298e-07 0.000101188 7.63754e-06
-3.82278e-05 -1.33613e-06 6.06587e-06
-5.00698e-05 -1.29166e-06 6.29792e-06
-5.77863e-05 -9.70075e-07 5.34577e-06
-1.25476e-06 0.000208398 2.59984e-05
-8.21718e-07 0.000121931 1.27669e-05
-6.40262e-07 0.000104796 9.38668e-06
5.22872e-05 2.30156e-06 -9.66324e-06
4.37526e-05 1.46302e-06 -6.42789e-06
3.80297e-05 8.69987e-07 -4.12784e-06
-5.84386e-07 0.000217554 3.07244e-05
-4.60803e-07 0.000128259 1.57872e-05
-3.53615e-07 0.000107041 1.15994e-05
2.3933e-05 0.0017453 0.000397817
5.45751e-05 0.00297836 0.00075113
2.72827e-06 0.000427472 7.98869e-05
8.48008e-06 0.000827804 0.000172315
0.000222512 1.69705e-05 -6.07758e-05
0.000200635 1.59434e-05 -5.92007e-05
5.68625e-06 0.000420854 8.72495e-05
1.31995e-05 0.000800319 0.000178169
0.000297379 2.49679e-05 -8.61969e-05
8.75513e-06 0.000407811 9.49729e-05
0.000134191 1.03349e-05 -3.95419e-05
3.33624e-05 0.00166403 0.000399198
0.000264116 2.32646e-05 -8.23988e-05
1.73002e-05 0.000760735 0.000184553
0.000367419 3.36778e-05 -0.000109522
0.000323314 3.08814e-05 -0.00010363
0.00014232 7.49869e-06 -2.97367e-05
0.000137429 5.73317e-06 -2.29295e-05
0.000134005 4.08901e-06 -1.66598e-05
8.42203e-07 0.000223326 3.75961e-05
3.36905e-07 0.000132652 2.03454e-05
2.60159e-07 0.000107545 1.52348e-05
0.000225819 8.89404e-06 -3.10678e-05
0.000227705 1.45876e-05 -5.20844e-05
0.000226688 1.17079e-05 -4.162e-05
2.49503e-06 0.000225569 4.36585e-05
1.34663e-06 0.000134687 2.46444e-05
1.02468e-06 0.000105943 1.84569e-05
0.000313557 1.44653e-05 -4.57868e-05
0.000308951 2.25892e-05 -7.48603e-05
0.000311839 1.85082e-05 -6.07626e-05
1.86779e-06 0.0001025 2.1935e-05
4.44975e-06 0.000223405 5.02409e-05
2.54716e-06 0.000134081 2.93125e-05
0.000391793 2.6683e-05 -7.8394e-05
0.000385118 3.25013e-05 -9.55377e-05
6.06736e-05 0.00282369 0.000730603
0.000174401 1.50172e-05 -5.39906e-05
6.5554e-05 0.00263799 0.000690391
3.72353e-05 0.00156111 0.000394438
0.000211816 1.97317e-05 -6.71929e-05
-0.000157643 -1.26775e-06 6.96668e-06
-0.000158696 -5.63946e-07 4.31725e-06
-0.000157539 -6.58491e-08 2.41189e-06
-7.30332e-07 0.00012049 7.45685e-06
-6.0806e-07 0.000145612 8.03194e-06
-3.60485e-07 0.000162611 8.31287e-06
-6.11297e-05 -6.36652e-07 3.26696e-06
-6.05961e-05 -3.13727e-07 2.04516e-06
-5.75603e-05 -8.94912e-08 1.14687e-06
-6.86927e-07 0.000120452 8.91066e-06
-4.94843e-07 0.000143301 9.71843e-06
-1.76628e-07 0.000159337 1.0216e-05
3.64499e-05 4.87265e-07 -2.31388e-06
3.86024e-05 2.92139e-07 -1.57204e-06
4.3475e-05 1.60092e-07 -1.07315e-06
-5.10792e-07 0.000118728 1.06703e-05
-2.51934e-07 0.000139002 1.17549e-05
1.1859e-07 0.000153906 1.25021e-05
-0.000155513 3.89985e-07 -2.30154e-07
-0.000153311 4.56881e-07 -2.75329e-07
-0.000151512 4.64482e-07 -9.4649e-08
-2.13256e-07 0.000166756 7.72982e-06
4.85141e-08 0.000159022 7.13965e-06
2.44438e-07 0.000143626 6.33586e-06
-5.34727e-05 1.9896e-07 -7.65804e-07
-4.91217e-05 1.50429e-07 -4.38738e-07
-4.52759e-05 9.53179e-08 -1.18496e-07
-1.15409e-07 0.000163583 9.83996e-06
2.16251e-07 0.000156356 9.34562e-06
4.70958e-07 0.000141615 8.50551e-06
4.98956e-05 -2.32387e-07 1.19434e-06
5.61927e-05 -1.57011e-07 8.4803e-07
6.18668e-05 -4.22575e-08 3.51884e-07
-4.41814e-08 0.000158102 1.25329e-05
3.6944e-07 0.000151456 1.21545e-05
6.95958e-07 0.000137561 1.12488e-05
0.000134686 2.1655e-06 -9.5583e-06
0.000138467 1.48845e-06 -6.46148e-06
0.000145063 1.09286e-06 -4.28361e-06
9.24167e-08 0.000115227 1.46394e-05
3.23834e-07 0.000132583 1.62651e-05
6.03072e-07 0.000146137 1.75235e-05
0.000229157 5.12077e-06 -1.72881e-05
0.000234726 3.86393e-06 -1.1822e-05
0.00024322 3.13856e-06 -7.99236e-06
6.87467e-07 0.00010983 1.75255e-05
8.61434e-07 0.000123768 1.93459e-05
1.03708e-06 0.000135547 2.08591e-05
0.000318956 9.50016e-06 -2.55472e-05
0.0003262 7.38812e-06 -1.77166e-05
0.000336381 6.0785e-06 -1.23073e-05
1.40854e-06 0.000102176 2.04327e-05
1.46529e-06 0.000112265 2.21866e-05
1.49714e-06 0.000121886 2.37983e-05
0.000154631 -1.47136e-06 5.74092e-06
0.00016202 -8.18862e-07 3.9575e-06
0.00016855 -7.79837e-08 1.99359e-06
3.84018e-07 0.000150315 1.73409e-05
7.13296e-07 0.00014446 1.68534e-05
9.57165e-07 0.000131749 1.5599e-05
0.000256563 -3.19971e-06 1.19949e-05
0.00026521 -1.67761e-06 8.08121e-06
0.000272941 -1.18613e-08 3.953e-06
9.41658e-07 0.000139504 2.13341e-05
1.12921e-06 0.000134505 2.07429e-05
1.23676e-06 0.000123202 1.91693e-05
0.000353735 -4.64523e-06 1.86411e-05
0.00036309 -2.10648e-06 1.25159e-05
0.000371445 6.39763e-07 6.137e-06
1.50393e-06 0.000125378 2.5197e-05
1.48948e-06 0.000121306 2.46091e-05
1.40722e-06 0.000111659 2.28135e-05
1.19922e-05 0.000389245 0.00010275
2.19304e-05 0.00071147 0.000188928
0.000431584 4.1401e-05 -0.000127352
1.46583e-05 0.000365339 0.000111617
0.000395963 2.09286e-05 -5.91312e-05
6.51822e-06 0.000218135 5.83524e-05
2.84002e-06 9.74757e-05 2.63563e-05
3.97982e-06 0.000131764 3.57765e-05
0.000454927 4.22763e-05 -0.00011061
0.00047074 2.82444e-05 -6.81263e-05
0.000464663 3.56396e-05 -9.03277e-05
3.59336e-06 9.09996e-05 3.02244e-05
5.17119e-06 0.000127288 4.19443e-05
0.000537023 3.38396e-05 -7.16411e-05
8.56659e-06 0.000209567 6.76958e-05
0.000529682 4.2985e-05 -9.60269e-05
3.87645e-06 8.36745e-05 3.31698e-05
5.94222e-06 0.000121293 4.70606e-05
6.44341e-05 0.00241699 0.000641417
4.02679e-05 0.00144127 0.000383456
0.000246169 2.40721e-05 -7.69246e-05
0.000377637 3.79885e-05 -0.000119251
6.26154e-05 0.00216601 0.00058445
4.27239e-05 0.00130348 0.000367531
2.35175e-05 0.000654373 0.000191381
0.000277346 2.75613e-05 -8.18089e-05
0.00042699 4.42137e-05 -0.000126901
0.000489669 4.80416e-05 -0.000134119
5.98523e-05 0.00188554 0.000522989
4.39016e-05 0.00114757 0.000346775
2.57739e-05 0.000588256 0.000192574
0.000305251 2.94623e-05 -8.15393e-05
0.000471449 4.81931e-05 -0.000126297
0.000541937 5.35113e-05 -0.000134295
5.18471e-05 0.00158295 0.000444109
4.02863e-05 0.000978854 0.000310675
1.60735e-05 0.000337617 0.000117294
0.000517478 5.0365e-05 -0.000117652
9.786e-06 0.000198262 7.40051e-05
0.000573644 5.63999e-05 -0.000118105
0.000587783 4.78577e-05 -9.55278e-05
0.000596074 3.63688e-05 -7.0463e-05
2.48105e-05 0.000516589 0.000181749
0.000329531 3.02275e-05 -7.53515e-05
0.000510161 5.0213e-05 -0.000116274
0.000587213 5.69963e-05 -0.000123286
4.21321e-05 0.0012633 0.000349884
3.40583e-05 0.000800078 0.000260221
2.25578e-05 0.000438945 0.000163285
0.000349894 2.96847e-05 -6.29857e-05
0.000543012 5.00979e-05 -9.70928e-05
0.000625772 5.77628e-05 -0.000102194
3.2116e-05 0.000933278 0.00025054
2.71359e-05 0.000615028 0.00020261
1.90919e-05 0.000357973 0.000139363
0.000365555 2.85638e-05 -4.54816e-05
0.000568875 4.80562e-05 -6.97688e-05
0.000656752 5.57415e-05 -7.2625e-05
2.091e-05 0.000590578 0.000152426
1.85914e-05 0.000422604 0.00013922
1.42738e-05 0.00027315 0.000109345
1.61901e-05 0.000305932 0.000118237
1.03382e-05 0.000184974 7.79092e-05
6.37806e-06 0.000114172 5.07273e-05
4.04732e-06 7.57253e-05 3.47859e-05
0.000621736 5.87302e-05 -0.000108841
0.000636645 5.09164e-05 -8.70638e-05
0.000644685 3.97095e-05 -6.26513e-05
1.54745e-05 0.000270568 0.000114573
1.02451e-05 0.000169737 7.93639e-05
6.44088e-06 0.000106236 5.30035e-05
3.95137e-06 6.7855e-05 3.53036e-05
0.000662093 5.91022e-05 -9.13046e-05
0.000677417 5.23939e-05 -7.16185e-05
0.000684825 4.20851e-05 -4.93572e-05
1.37384e-05 0.000233728 0.000106194
9.5126e-06 0.000153582 7.81207e-05
6.10967e-06 9.80203e-05 5.38109e-05
3.62571e-06 6.03889e-05 3.48676e-05
0.000694585 5.71151e-05 -6.68221e-05
0.000710746 5.13693e-05 -5.04583e-05
0.000718078 4.21613e-05 -3.18571e-05
1.09229e-05 0.00019483 9.26296e-05
7.96492e-06 0.000136174 7.32676e-05
5.21582e-06 8.91683e-05 5.22096e-05
0.000412078 1.13794e-05 -2.27027e-05
0.000423806 9.72136e-06 -1.55601e-05
0.000403305 1.47031e-05 -3.26874e-05
2.36246e-06 9.25893e-05 2.45416e-05
2.27196e-06 9.85856e-05 2.61334e-05
2.16633e-06 0.000105791 2.79667e-05
0.00050259 1.35765e-05 -1.54712e-05
0.000480291 2.05259e-05 -3.61885e-05
0.000489859 1.64872e-05 -2.45133e-05
2.92468e-06 8.35132e-05 2.86991e-05
2.66362e-06 8.81921e-05 3.02822e-05
3.24994e-06 8.15956e-05 2.78897e-05
0.000556822 2.03813e-05 -2.45079e-05
0.000570278 1.54724e-05 -1.40804e-05
0.000545717 2.67014e-05 -3.84807e-05
3.2247e-06 6.98981e-05 2.92008e-05
2.78046e-06 6.77374e-05 2.84411e-05
2.4974e-06 6.98583e-05 2.93261e-05
0.000630243 1.67383e-05 -1.10129e-05
0.0006046 3.17336e-05 -3.82096e-05
0.000616247 2.33818e-05 -2.27296e-05
0.00044429 -6.08461e-06 2.51982e-05
0.000454545 -2.51968e-06 1.70064e-05
0.000463795 1.36739e-06 8.44221e-06
2.08931e-06 0.000108991 2.91689e-05
1.85271e-06 0.000105912 2.85431e-05
1.56702e-06 9.81229e-05 2.65845e-05