# vtk DataFile Version 3.0
vtk output
ASCII
DATASET POLYDATA
POINTS 15049 float
0.00120174 0.126411 -0.0482459
0.00103322 0.106907 -0.0482116
0.000855239 0.0874544 -0.0478258
0.000668934 0.06803 -0.0470725
0.000475874 0.0486151 -0.0459309
0.000281746 0.029191 -0.0443812
0.0111171 0.116751 -0.0488676
0.0109523 0.0972524 -0.048448
0.010773 0.0777981 -0.0477347
0.0105813 0.0583683 -0.0467031
0.0212082 0.126685 -0.0492261
0.0210492 0.107112 -0.0486867
0.0411953 0.12695 -0.0501008
0.0611704 0.127219 -0.0508549
0.081135 0.127468 -0.0514505
0.0410492 0.107332 -0.0491041
0.0610359 0.107553 -0.0494442
0.0810099 0.107761 -0.0496913
0.100973 0.10795 -0.049846
0.0311198 0.116979 -0.0495217
0.0511091 0.117225 -0.0500935
0.0710857 0.117459 -0.0505548
0.091051 0.117674 -0.0508877
0.0208717 0.0876047 -0.0479485
0.0408759 0.0877814 -0.0480377
0.0608677 0.0879568 -0.0480855
0.0808476 0.0881241 -0.0480884
0.100817 0.0882772 -0.0480546
0.0309614 0.0974317 -0.048687
0.0509582 0.0976293 -0.048885
0.070942 0.097821 -0.0490205
0.0909138 0.0979998 -0.0490901
0.0206822 0.0681404 -0.0469794
0.040686 0.0682735 -0.0468708
0.06068 0.0684063 -0.0467431
0.0806644 0.0685337 -0.0466025
0.10064 0.0686509 -0.0464605
0.0307823 0.0779383 -0.0477021
0.0507811 0.0780923 -0.0476523
0.0707688 0.078243 -0.0475741
0.090746 0.0783847 -0.0474736
0.0204846 0.0486909 -0.0457476
0.0404869 0.0487843 -0.0455575
0.0604823 0.0488774 -0.045362
0.080471 0.0489666 -0.0451707
0.100454 0.0490487 -0.044995
0.0305884 0.058474 -0.0465318
0.0505872 0.0585878 -0.0463529
0.0705777 0.0586994 -0.046167
0.0905604 0.0588045 -0.0459841
0.0202858 0.0292363 -0.044214
0.0402868 0.0292928 -0.0440436
0.0602839 0.0293488 -0.0438737
0.0802773 0.0294022 -0.0437125
0.100267 0.0294511 -0.043568
0.0103835 0.0389408 -0.0453291
0.0303874 0.0390162 -0.0451326
0.0503862 0.0390927 -0.0449303
0.0703798 0.0391674 -0.0447311
0.0903685 0.0392376 -0.0445445
0.00136496 0.14599 -0.0479837
0.00152863 0.165637 -0.0474256
0.00168421 0.185369 -0.0465055
0.00184212 0.205192 -0.0452594
0.00201043 0.225101 -0.0436683
0.0112666 0.136314 -0.0489753
0.0213433 0.14633 -0.0495441
0.101096 0.127696 -0.0519111
0.031251 0.136601 -0.0502064
0.0512231 0.136902 -0.0512969
0.0711863 0.137182 -0.0522176
0.0911431 0.137435 -0.0529286
0.0113985 0.155966 -0.0488892
0.0115099 0.175702 -0.0485395
0.0116037 0.195541 -0.0479007
0.0116824 0.215487 -0.0469692
0.0413084 0.146657 -0.0510182
0.0612598 0.146981 -0.052342
0.0812087 0.147273 -0.0534276
0.101157 0.147528 -0.0542469
0.0313448 0.15632 -0.050777
0.0512813 0.156683 -0.0525156
0.0712186 0.15701 -0.0540099
0.0911614 0.157296 -0.0551921
0.0214531 0.166064 -0.0496769
0.0313865 0.176146 -0.0512332
0.0413626 0.166466 -0.0519047
0.0612723 0.166845 -0.0539026
0.0811945 0.167175 -0.0555638
0.101132 0.167454 -0.0568391
0.051265 0.176579 -0.0537298
0.0711594 0.176953 -0.0559049
0.09108 0.177269 -0.0576478
0.021523 0.185899 -0.0496248
0.0313725 0.196092 -0.0515353
0.0413501 0.186393 -0.0527105
0.0611937 0.186833 -0.05549
0.0810742 0.187201 -0.0578196
0.100996 0.187501 -0.0596252
0.0511618 0.196605 -0.0548889
0.0709905 0.197032 -0.0578384
0.0908775 0.197378 -0.0602204
0.0215526 0.205842 -0.0493895
0.0313007 0.21616 -0.051636
0.041262 0.20644 -0.0533921
0.0610084 0.20695 -0.0570435
0.0808279 0.207362 -0.0601198
0.100727 0.207683 -0.0625184
0.0509627 0.216765 -0.0559323
0.0706981 0.217256 -0.0597305
0.0905372 0.217638 -0.0628142
0.0022671 0.245049 -0.0418223
0.00252096 0.265071 -0.0395611
0.00282819 0.285119 -0.0369073
0.00329518 0.305229 -0.0336555
0.0117817 0.235532 -0.0456962
0.021568 0.225906 -0.0488771
0.0311971 0.236359 -0.0514858
0.0411062 0.226614 -0.0539399
0.0607234 0.227231 -0.058534
0.0804577 0.227711 -0.0624451
0.100325 0.228077 -0.0655175
0.0506862 0.23708 -0.0568217
0.0702948 0.237666 -0.0615476
0.0900678 0.238114 -0.0654088
0.011904 0.255637 -0.0441406
0.0120406 0.275808 -0.0422058
0.0122236 0.296008 -0.0398491
0.012565 0.316247 -0.0368959
0.0215707 0.246073 -0.0480267
0.0310677 0.256668 -0.0509705
0.0408844 0.246922 -0.054201
0.0603337 0.247658 -0.0597851
0.0799553 0.248232 -0.0645679
0.0997791 0.248663 -0.0683432
0.0503342 0.257527 -0.0573999
0.0697801 0.258243 -0.0630811
0.0894668 0.258784 -0.0677427
0.0215552 0.266329 -0.0468141
0.0309059 0.277084 -0.0501073
0.0405961 0.267368 -0.0541161
0.0598313 0.268248 -0.0607228
0.0793163 0.268957 -0.0663824
0.0990884 0.269485 -0.070866
0.0499045 0.278118 -0.0576081
0.069158 0.279009 -0.0642321
0.0887433 0.279686 -0.0696859
0.0215569 0.286636 -0.0451799
0.0307594 0.297561 -0.0487726
0.0402875 0.287921 -0.0535626
0.0592726 0.28899 -0.0611736
0.0785995 0.289873 -0.0676891
0.0983108 0.290533 -0.0728705
0.0494593 0.298827 -0.0572902
0.0684962 0.299939 -0.0648158
0.0879661 0.300793 -0.0710334
0.0216502 0.306968 -0.043044
0.0307336 0.318067 -0.0468147
0.0400352 0.308552 -0.0523869
0.0587346 0.30983 -0.0609775
0.0778839 0.310932 -0.0683027
0.0975218 0.311761 -0.0741522
0.0490892 0.319613 -0.0562793
0.0678787 0.320913 -0.0646966
0.0872111 0.32199 -0.0716608
0.00379074 0.325154 -0.0302636
0.0043455 0.345026 -0.026453
0.0129214 0.336268 -0.0337134
0.0218022 0.327242 -0.0404808
0.0307618 0.338471 -0.0443909
0.0398505 0.3291 -0.0507312
0.0967718 0.333169 -0.0746429
0.0582633 0.330726 -0.0600901
0.0772209 0.332101 -0.0681671
0.0673428 0.342028 -0.063817
0.0487772 0.340343 -0.0547225
0.0133932 0.356258 -0.029992
0.0220218 0.347439 -0.0374892
0.106362 0.344459 -0.0773148
0.0865472 0.3434 -0.0714336
0.0961477 0.354729 -0.0741858
0.0766732 0.353402 -0.0671684
0.0578918 0.351711 -0.0584806
0.0397458 0.349711 -0.0484101
0.0308953 0.358796 -0.0414399
0.105841 0.366214 -0.0764466
0.0957548 0.376435 -0.0725433
0.0860646 0.364901 -0.0701172
0.0669822 0.363201 -0.0620614
0.0763492 0.374757 -0.0651639
0.0486276 0.361109 -0.0523597
0.0577136 0.372658 -0.0560215
0.0398232 0.37019 -0.045402
0.0224116 0.367567 -0.0338376
0.0957099 0.398152 -0.0696641
0.105615 0.388102 -0.0743018
0.07636 0.396065 -0.0620412
0.0858637 0.386434 -0.067723
0.0668865 0.384297 -0.0592766
0.0487393 0.381776 -0.0491225
0.057851 0.393517 -0.0525844
0.0401681 0.390601 -0.04155
0.03126 0.379062 -0.0377082
0.0960642 0.419689 -0.065532
0.0860499 0.407903 -0.0640948
0.105758 0.409887 -0.0708773
0.0767862 0.417239 -0.057741
0.0671917 0.405372 -0.0553641
0.0491682 0.402402 -0.0449608
0.0583737 0.414269 -0.0481009
0.0407659 0.410862 -0.0369554
0.0318076 0.399215 -0.0333745
0.0229362 0.387554 -0.0296742
0.0139873 0.376126 -0.0258577
0.032583 0.419105 -0.0284297
0.11102 0.117877 -0.0511791
0.110883 0.0981684 -0.0491407
0.110717 0.0785182 -0.0473653
0.120933 0.10813 -0.049972
0.140878 0.10827 -0.0499291
0.160819 0.108387 -0.0498615
0.180759 0.108482 -0.049796
0.200699 0.108555 -0.0497515
0.130966 0.118041 -0.051268
0.150905 0.118177 -0.0512585
0.170842 0.118288 -0.0512212
0.190778 0.118375 -0.0511847
0.120778 0.0884279 -0.0479881
0.140732 0.0885439 -0.0478601
0.160683 0.0886421 -0.0477377
0.180632 0.0887223 -0.0476364
0.200582 0.0887856 -0.0475662
0.130833 0.0983131 -0.0490671
0.15078 0.0984306 -0.0489683
0.170724 0.0985277 -0.0488726
0.190668 0.098605 -0.0487968
0.120607 0.0687649 -0.0462922
0.140571 0.0688554 -0.0461257
0.160533 0.0689324 -0.0459814
0.180494 0.0689959 -0.0458668
0.200455 0.0690469 -0.0457858
0.130676 0.0786342 -0.0472058
0.150633 0.0787301 -0.0470577
0.170588 0.07881 -0.0469311
0.190542 0.0788745 -0.046834
0.12043 0.0491255 -0.0448025
0.140405 0.0491897 -0.0446414
0.160378 0.0492446 -0.0445071
0.180351 0.0492902 -0.0444019
0.200324 0.0493274 -0.0443259
0.110536 0.0589037 -0.0457966
0.130507 0.0589876 -0.0456154
0.150475 0.05906 -0.0454572
0.170441 0.0591207 -0.0453274
0.190408 0.0591703 -0.0452283
0.120253 0.0294931 -0.0434194
0.140239 0.0295317 -0.0433019
0.160224 0.0295647 -0.0432055
0.180208 0.0295923 -0.0431299
0.200192 0.029615 -0.0430737
0.110352 0.0392998 -0.0443617
0.130334 0.0393562 -0.0442043
0.150313 0.039405 -0.0440711
0.170292 0.039446 -0.0439634
0.19027 0.0394799 -0.0438801
0.210727 0.118429 -0.0511443
0.210619 0.0986522 -0.0487337
0.220649 0.108591 -0.0497338
0.240592 0.108639 -0.0497117
0.260539 0.108674 -0.0497079
0.28049 0.108701 -0.0497166
0.300446 0.108719 -0.0497346
0.230665 0.118471 -0.0511559
0.250606 0.118511 -0.0511609
0.270551 0.118539 -0.0511775
0.2905 0.11856 -0.0512002
0.220536 0.0888211 -0.0475167
0.240488 0.0888637 -0.0474761
0.260445 0.0888967 -0.047454
0.280405 0.088922 -0.0474458
0.300369 0.0889406 -0.0474497
0.230564 0.0986979 -0.0487016
0.250514 0.0987359 -0.0486811
0.270467 0.0987647 -0.0486748
0.290424 0.0987862 -0.0486784
0.220417 0.069076 -0.0457295
0.240379 0.0691117 -0.0456775
0.260345 0.0691401 -0.0456426
0.280314 0.0691625 -0.0456214
0.300285 0.0691797 -0.0456128
0.210499 0.0789122 -0.046766
0.230455 0.0789554 -0.0467075
0.250413 0.0789895 -0.0466685
0.270375 0.0790162 -0.0466442
0.290339 0.0790367 -0.0466315
0.220296 0.0493479 -0.0442743
0.240269 0.0493747 -0.0442227
0.260244 0.0493966 -0.0441848
0.280222 0.0494143 -0.0441584
0.300201 0.0494282 -0.0441429
0.210374 0.0591999 -0.0451604
0.230341 0.0592341 -0.0450969
0.25031 0.0592618 -0.0450503
0.27028 0.0592841 -0.0450168
0.290253 0.0593018 -0.0449942
0.220176 0.029627 -0.0430346
0.24016 0.0296436 -0.0429964
0.260145 0.0296573 -0.0429668
0.280131 0.0296687 -0.0429444
0.300119 0.0296779 -0.0429288
0.210248 0.0395007 -0.0438211
0.230226 0.0395243 -0.0437671
0.250205 0.0395437 -0.0437253
0.270186 0.0395597 -0.0436928
0.290167 0.0395728 -0.0436681
0.111108 0.137663 -0.0534894
0.121058 0.127894 -0.052264
0.140995 0.128049 -0.0523669
0.160933 0.128183 -0.0523963
0.180869 0.128289 -0.0523976
0.200804 0.12837 -0.0524035
0.131056 0.137833 -0.0538246
0.150995 0.137985 -0.0539562
0.170931 0.138106 -0.0540142
0.190867 0.1382 -0.0540446
0.111113 0.157547 -0.0560821
0.111031 0.177539 -0.0590004
0.110829 0.197666 -0.0620995
0.11049 0.217953 -0.06527
0.121117 0.147736 -0.0548993
0.141062 0.147903 -0.0552057
0.161004 0.148046 -0.0553674
0.180943 0.148157 -0.0554584
0.20088 0.14824 -0.0555284
[...]
POINT_DATA 15049
VECTORS alpha float
3.84146e-06 0.000574816 -6.40749e-06
1.68022e-06 0.000211016 -6.15426e-06
-1.40003e-06 -0.000153931 7.34328e-06
-5.12187e-06 -0.00051633 3.45515e-05
-8.9948e-06 -0.000872517 7.57443e-05
-1.24007e-05 -0.0012185 0.000130859
-0.000372941 -4.0399e-06 1.0192e-05
-0.000376016 -3.05281e-06 3.84143e-06
-0.000373878 -2.16104e-06 -2.00082e-07
-0.0003667 -1.36942e-06 -2.02056e-06
1.43949e-06 0.000247157 -1.00152e-05
2.86344e-07 3.71013e-05 -1.8852e-06
1.6409e-07 3.39027e-05 -2.26899e-06
-1.77539e-07 -4.39266e-05 3.99839e-06
-2.07372e-07 -5.93464e-05 6.59801e-06
-4.61803e-07 -6.3062e-05 4.44466e-06
-6.38246e-07 -9.19695e-05 8.13003e-06
-5.48974e-07 -8.32314e-05 8.59412e-06
-3.37486e-07 -5.35811e-05 6.13683e-06
-0.000587376 -6.51238e-06 1.50436e-05
-0.000686081 -7.4044e-06 1.48917e-05
-0.000734861 -7.43586e-06 1.21964e-05
-0.000758995 -6.92816e-06 8.64848e-06
-1.58123e-06 -0.000172276 1.06135e-05
-1.44316e-06 -0.000158592 1.18744e-05
-1.2354e-06 -0.000138462 1.19994e-05
-9.16553e-07 -0.000105825 1.01864e-05
-5.53055e-07 -6.64114e-05 6.86309e-06
-0.000591012 -4.98242e-06 5.00958e-06
-0.000688771 -5.74727e-06 4.31013e-06
-0.000736141 -5.84014e-06 2.74296e-06
-0.000758994 -5.48989e-06 1.13726e-06
-3.83702e-06 -0.000378853 2.80271e-05
-2.55859e-06 -0.00025166 2.03726e-05
-1.83904e-06 -0.000182845 1.58971e-05
-1.24377e-06 -0.000126805 1.16097e-05
-7.37911e-07 -7.82107e-05 7.40302e-06
-0.000586372 -3.55245e-06 -1.2329e-06
-0.000681744 -4.1237e-06 -2.13141e-06
-0.000726986 -4.21061e-06 -2.86247e-06
-0.000748198 -3.97299e-06 -3.18979e-06
-6.11066e-06 -0.000580576 5.10976e-05
-3.60931e-06 -0.000341315 3.04932e-05
-2.35089e-06 -0.000224641 2.02453e-05
-1.48896e-06 -0.000145931 1.31698e-05
-8.71264e-07 -8.88359e-05 7.97153e-06
-0.000573787 -2.24214e-06 -3.75081e-06
-0.000665457 -2.59644e-06 -4.54735e-06
-0.000707951 -2.64473e-06 -4.75772e-06
-0.000727235 -2.4911e-06 -4.45951e-06
-8.02926e-06 -0.00077521 8.05102e-05
-4.42613e-06 -0.000426555 4.28197e-05
-2.69969e-06 -0.000263382 2.54787e-05
-1.62764e-06 -0.000162994 1.51631e-05
-9.42616e-07 -9.81766e-05 8.7777e-06
-0.000354516 -6.60618e-07 -1.85607e-06
-0.000553345 -1.06267e-06 -3.05897e-06
-0.000640045 -1.21762e-06 -3.53058e-06
-0.000679209 -1.22891e-06 -3.51992e-06
-0.000696309 -1.14957e-06 -3.16546e-06
5.03594e-06 0.000933719 5.58741e-06
5.30913e-06 0.00128341 2.91039e-05
5.10607e-06 0.00161946 6.54893e-05
4.97332e-06 0.00193672 0.000113747
5.69047e-06 0.00222933 0.000173229
-0.00036472 -5.1689e-06 1.87936e-05
1.57186e-06 0.000455707 -1.3777e-05
-1.24527e-07 -3.9936e-05 5.10651e-06
-0.000575673 -8.19415e-06 2.89223e-05
-0.000674074 -9.12305e-06 2.98572e-05
-0.000723771 -8.99197e-06 2.59114e-05
-0.000749067 -8.25106e-06 1.98936e-05
-0.000351214 -6.35074e-06 2.93653e-05
-0.000332444 -7.54278e-06 4.06767e-05
-0.000308393 -8.72008e-06 5.14585e-05
-0.000279409 -9.83232e-06 6.05315e-05
1.85391e-07 0.000131355 -8.43184e-06
-3.12422e-10 5.26787e-06 -4.9919e-07
3.2756e-08 -3.43196e-05 4.13401e-06
3.21228e-08 -2.55188e-05 3.58135e-06
-0.000555512 -9.88583e-06 4.54596e-05
-0.000652198 -1.06983e-05 4.77619e-05
-0.000702186 -1.0262e-05 4.23896e-05
-0.000728402 -9.19412e-06 3.34208e-05
4.1116e-07 0.00066019 -1.28975e-05
-0.000527081 -1.14274e-05 6.34507e-05
-6.08131e-07 0.000228175 -1.36323e-05
-2.82811e-07 5.49881e-05 -5.27437e-06
5.62032e-08 -8.51065e-06 1.07616e-06
7.41183e-08 -1.05637e-05 1.58683e-06
-0.000620699 -1.20513e-05 6.71879e-05
-0.00067042 -1.11931e-05 6.0416e-05
-0.000697386 -9.72542e-06 4.83242e-05
-1.90176e-06 0.000858383 -5.95971e-06
-0.000490279 -1.29299e-05 8.08505e-05
-2.34769e-06 0.000323142 -1.71343e-05
-1.15915e-06 0.00010464 -9.83083e-06
-2.36651e-07 1.77674e-05 -2.28506e-06
-6.60132e-08 4.73695e-06 -7.37758e-07
-0.000579477 -1.32061e-05 8.62346e-05
-0.000628349 -1.18353e-05 7.82587e-05
-0.000655879 -9.90007e-06 6.31995e-05
-5.17776e-06 0.00104756 7.61277e-06
-0.000445644 -1.43634e-05 9.55523e-05
-5.02612e-06 0.000414931 -1.8013e-05
-2.68851e-06 0.000153562 -1.3493e-05
-9.13975e-07 4.4163e-05 -5.54838e-06
-4.35565e-07 2.01722e-05 -3.13397e-06
-0.000529083 -1.41928e-05 0.000102746
-0.000576494 -1.23117e-05 9.39342e-05
-0.000604357 -9.907e-06 7.64202e-05
1.08205e-05 0.00249085 0.000243556
1.82729e-05 0.00271618 0.000322053
2.91718e-05 0.00289906 0.000405624
4.34354e-05 0.00303306 0.000482632
-0.000245788 -1.07615e-05 6.67692e-05
-8.35187e-06 0.00122384 2.92893e-05
-0.000393606 -1.57416e-05 0.000105981
-8.29617e-06 0.000502374 -1.52458e-05
-4.74707e-06 0.000201031 -1.54676e-05
-1.96139e-06 7.03093e-05 -8.2033e-06
-1.0361e-06 3.55278e-05 -5.26245e-06
-0.000469921 -1.5278e-05 0.000115065
-0.000515173 -1.30618e-05 0.000106115
-0.000543038 -1.03001e-05 8.71707e-05
-0.000208293 -1.14056e-05 6.89561e-05
-0.000167849 -1.14111e-05 6.57812e-05
-0.000125446 -1.04834e-05 5.68426e-05
-8.21285e-05 -8.23218e-06 4.22927e-05
-1.08281e-05 0.00138379 5.92349e-05
-0.000335367 -1.67298e-05 0.000109837
-1.16476e-05 0.000583649 -7.48816e-06
-7.11446e-06 0.000246251 -1.49298e-05
-3.28699e-06 9.58068e-05 -9.69308e-06
-1.81978e-06 5.05883e-05 -6.74844e-06
-0.00040337 -1.61456e-05 0.000120479
-0.000445822 -1.37632e-05 0.000112028
-0.000473357 -1.07503e-05 9.27856e-05
-1.14784e-05 0.00152382 9.76342e-05
-0.000272334 -1.68154e-05 0.000105643
-1.43283e-05 0.000657091 5.96063e-06
-9.38344e-06 0.000288666 -1.1114e-05
-4.68422e-06 0.000120411 -9.44028e-06
-2.66969e-06 6.52643e-05 -7.19574e-06
-0.000330872 -1.65807e-05 0.00011705
-0.000369648 -1.42626e-05 0.00010986
-0.000396177 -1.1162e-05 9.17636e-05
-9.51484e-06 0.00164039 0.000143222
-0.000206051 -1.57326e-05 9.24166e-05
-1.55497e-05 0.00072068 2.52063e-05
-1.10154e-05 0.000327102 -3.56556e-06
-5.862e-06 0.000143555 -7.03024e-06
-3.41744e-06 7.92321e-05 -6.29965e-06
-0.000254091 -1.59507e-05 0.000103821
-0.000288151 -1.40076e-05 9.87166e-05
-0.000312737 -1.11081e-05 8.33893e-05
-4.75007e-06 0.00173112 0.000192363
-0.000138133 -1.28521e-05 7.03349e-05
-1.47434e-05 0.000772503 4.89246e-05
-1.15191e-05 0.000360698 7.59109e-06
-6.518e-06 0.000164724 -2.33318e-06
-3.88036e-06 9.21706e-05 -3.9209e-06
-0.000174711 -1.36047e-05 8.08988e-05
-0.000202911 -1.24146e-05 7.87542e-05
-0.000224406 -1.00856e-05 6.77775e-05
5.79273e-05 0.00310402 0.000556058
7.5048e-05 0.00312662 0.000627132
-3.88678e-05 -4.57268e-06 2.2346e-05
4.35431e-06 0.00178642 0.000242077
-7.01721e-05 -7.86498e-06 3.97484e-05
-1.08537e-05 0.000810319 7.68963e-05
-3.8535e-06 0.000103727 1.04434e-07
-1.05142e-05 0.000388365 2.18317e-05
-6.37273e-06 0.000183274 4.59035e-06
-0.000115864 -8.93456e-06 4.96606e-05
-9.46281e-05 -9.13217e-06 4.87021e-05
3.49138e-06 4.85403e-07 -2.1856e-06
1.66635e-05 0.00181174 0.0002971
-0.000145126 -6.01468e-06 3.50647e-05
-0.000133081 -7.7214e-06 4.43402e-05
-3.14983e-06 0.000113448 5.68821e-06
-4.97723e-06 0.000198685 1.40814e-05
-7.31304e-06 0.000409081 3.96398e-05
-4.3628e-06 0.000834626 0.000108122
-3.48977e-06 -4.73593e-07 2.16054e-06
-4.86598e-05 -2.57268e-06 1.26737e-05
-1.64075e-06 0.000121268 1.27408e-05
-4.05122e-05 -2.98367e-06 1.45419e-05
-2.87207e-05 -2.76471e-06 1.32995e-05
-2.36505e-06 0.000210489 2.55265e-05
-1.54442e-05 -1.83277e-06 8.61985e-06
-2.06865e-06 0.000422264 5.98434e-05
4.7538e-06 0.00084351 0.000141332
3.1886e-05 0.00180762 0.000352118
6.36826e-07 0.000126767 2.09555e-05
4.83085e-05 3.2078e-06 -1.3227e-05
1.53296e-06 0.000218463 3.84756e-05
5.17953e-05 4.71513e-06 -1.95752e-05
5.72881e-05 6.77379e-06 -2.80295e-05
6.18883e-05 8.86424e-06 -3.65932e-05
5.09659e-06 0.000427756 8.13623e-05
1.64719e-05 0.000839366 0.00017463
6.11356e-05 9.86491e-06 -4.02448e-05
3.45406e-06 0.000129532 2.96782e-05
0.000142021 1.57205e-05 -5.52517e-05
0.000143623 1.15592e-05 -4.04699e-05
6.32762e-06 0.000222038 5.19774e-05
0.000140731 2.00049e-05 -7.10661e-05
0.000136358 2.32363e-05 -8.35043e-05
1.35331e-05 0.000425798 0.000102738
2.90191e-05 0.000819992 0.000204457
0.000123088 2.29887e-05 -8.42203e-05
4.92533e-05 0.0017742 0.000400805
4.45257e-05 7.23813e-06 -2.96721e-05
0.000182702 3.84247e-05 -0.000126884
-0.000772523 -5.99605e-06 4.59265e-06
-0.000771758 -4.80442e-06 -1.03415e-06
-0.000759975 -3.50813e-06 -4.19808e-06
-1.13388e-07 -1.70663e-05 2.14614e-06
9.70278e-08 1.55268e-05 -2.04161e-06
2.22125e-07 3.80265e-05 -5.14327e-06
2.64823e-07 4.89007e-05 -6.73177e-06
2.49051e-07 5.00657e-05 -6.96834e-06
-0.000783774 -5.15985e-06 5.77794e-07
-0.000796427 -4.36358e-06 -7.26343e-07
-0.000811448 -3.54867e-06 -9.86856e-07
-0.000828202 -2.77284e-06 -4.70152e-07
-2.3421e-07 -2.81006e-05 3.09501e-06
2.04934e-08 2.62902e-06 -2.981e-07
1.62274e-07 2.2486e-05 -2.59477e-06
2.08702e-07 3.15419e-05 -3.67794e-06
1.94074e-07 3.22805e-05 -3.78791e-06
-0.0007828 -4.20132e-06 -2.98375e-06
-0.000795743 -3.58702e-06 -3.07008e-06
-0.000811405 -2.95683e-06 -2.54232e-06
-0.000828965 -2.35484e-06 -1.58129e-06
-3.56691e-07 -3.86751e-05 3.76921e-06
-8.85085e-08 -1.02799e-05 1.01092e-06
5.26015e-08 6.61696e-06 -6.52762e-07
9.95562e-08 1.3697e-05 -1.35155e-06
9.21174e-08 1.39798e-05 -1.37842e-06
-0.000770605 -3.1048e-06 -4.61799e-06
-0.000783623 -2.67129e-06 -4.03459e-06
-0.000799682 -2.23014e-06 -3.1529e-06
-0.000817783 -1.81026e-06 -2.08246e-06
-4.60413e-07 -4.86586e-05 4.33514e-06
-2.03739e-07 -2.30381e-05 2.02384e-06
-7.66941e-08 -9.37781e-06 8.1222e-07
-3.29829e-08 -4.40129e-06 3.76404e-07
-3.12913e-08 -4.5927e-06 3.88741e-07
-0.00073786 -2.2208e-06 -4.97312e-06
-0.000747902 -1.97744e-06 -4.40236e-06
-0.000760796 -1.71087e-06 -3.65826e-06
-0.000777003 -1.44455e-06 -2.81318e-06
-0.000795361 -1.19375e-06 -1.92205e-06
-5.3274e-07 -5.79464e-05 4.98531e-06
-3.06273e-07 -3.55016e-05 2.94602e-06
-2.02894e-07 -2.53076e-05 2.0349e-06
-1.66451e-07 -2.25292e-05 1.76449e-06
-1.56847e-07 -2.32015e-05 1.77918e-06
-0.000705617 -1.03951e-06 -3.14648e-06
-0.000714944 -9.24247e-07 -2.6934e-06
-0.000727531 -8.03133e-07 -2.19449e-06
-0.00074365 -6.85629e-07 -1.68607e-06
-0.000761998 -5.77051e-07 -1.18684e-06
-0.000845367 -2.19537e-06 7.05752e-07
-0.000846948 -1.96459e-06 -8.68786e-07
2.24672e-07 4.51068e-05 -6.28964e-06
1.69513e-07 3.76755e-05 -5.32398e-06
1.22706e-07 3.04527e-05 -4.35129e-06
8.8709e-08 2.48241e-05 -3.57673e-06
6.59682e-08 2.10641e-05 -3.04981e-06
-0.00086186 -1.76067e-06 4.3634e-07
-0.000876841 -1.31211e-06 9.63315e-07
-0.000889893 -9.55027e-07 1.24525e-06
-0.000900996 -6.62583e-07 1.37453e-06
1.6059e-07 2.81759e-05 -3.29675e-06
1.15119e-07 2.24361e-05 -2.64867e-06
7.91271e-08 1.72584e-05 -2.0534e-06
5.54813e-08 1.36561e-05 -1.63462e-06
4.16702e-08 1.16937e-05 -1.40453e-06
-0.00086419 -1.59591e-06 -5.48004e-07
-0.00087976 -1.23641e-06 2.91032e-08
-0.000893278 -9.36973e-07 4.29271e-07
-0.000904749 -6.77605e-07 7.41074e-07
6.59071e-08 1.07759e-05 -1.0523e-06
3.75068e-08 6.80533e-06 -6.66769e-07
1.84931e-08 3.74681e-06 -3.68387e-07
9.7654e-09 2.22448e-06 -2.19326e-07
8.09285e-09 2.08997e-06 -2.06322e-07
-0.000836299 -1.59912e-06 -1.8964e-06
-0.000854021 -1.29814e-06 -1.184e-06
-0.000869965 -1.03935e-06 -6.40942e-07
-0.000883768 -8.15696e-07 -2.14915e-07
-0.000895465 -6.13757e-07 1.72499e-07
-4.29665e-08 -6.85512e-06 5.70783e-07
-5.09483e-08 -8.99599e-06 7.45838e-07
-5.03014e-08 -9.88399e-06 8.17234e-07
-4.22602e-08 -9.29656e-06 7.67014e-07
-3.06176e-08 -7.59497e-06 6.25093e-07
-0.000814139 -1.08158e-06 -1.81697e-06
-0.000832052 -8.99575e-07 -1.2879e-06
-0.000848113 -7.39523e-07 -8.68131e-07
-0.000861976 -5.96796e-07 -5.13246e-07
-0.000873702 -4.63786e-07 -1.65767e-07
-1.51767e-07 -2.4488e-05 1.8373e-06
-1.39213e-07 -2.47586e-05 1.83345e-06
-1.18996e-07 -2.34499e-05 1.7186e-06
-9.44801e-08 -2.07479e-05 1.50742e-06
-6.99135e-08 -1.72237e-05 1.24167e-06
-0.000780787 -5.29675e-07 -1.11126e-06
-0.00079863 -4.49775e-07 -8.37645e-07
-0.000814573 -3.78275e-07 -6.14464e-07
-0.000828292 -3.12973e-07 -4.16122e-07
-0.000839871 -2.50755e-07 -2.12741e-07
-0.000763394 -7.04527e-06 1.296e-05
-2.12036e-08 -5.75658e-06 8.23604e-07
1.02834e-07 2.82239e-05 -4.27311e-06
1.8959e-07 5.30328e-05 -8.33233e-06
2.29495e-07 6.55582e-05 -1.05423e-05
2.27898e-07 6.7125e-05 -1.09497e-05
-0.000774876 -5.94423e-06 6.48087e-06
-0.000787193 -4.94838e-06 3.31641e-06
-0.000801462 -3.95625e-06 1.81637e-06
-0.000817254 -3.03076e-06 1.63033e-06
-0.000743532 -7.74988e-06 2.32573e-05
-0.000713215 -7.90168e-06 3.50536e-05
-0.000672367 -7.68176e-06 4.67966e-05
-0.000621417 -7.32724e-06 5.72406e-05
-2.80379e-09 5.80462e-06 -9.24714e-07
-1.96869e-08 4.06801e-05 -6.95267e-06
4.41714e-09 6.74348e-05 -1.20268e-05
5.10778e-08 8.14179e-05 -1.49103e-05
9.43522e-08 8.33481e-05 -1.55096e-05
-0.000755161 -6.34163e-06 1.39115e-05
-0.000766955 -5.15061e-06 8.42099e-06
-0.00078023 -4.00766e-06 5.29707e-06
-0.000794778 -2.97208e-06 4.09359e-06
-1.0623e-07 1.74416e-05 -3.01349e-06
-3.09175e-07 5.27322e-05 -9.88967e-06
-3.70297e-07 8.10758e-05 -1.59328e-05
-3.1103e-07 9.63317e-05 -1.94823e-05
-1.95181e-07 9.8601e-05 -2.02798e-05
-0.00072511 -6.13669e-06 2.2372e-05
-0.000736278 -4.79098e-06 1.43162e-05
-0.000748386 -3.56471e-06 9.34416e-06
-0.000761462 -2.50238e-06 6.9216e-06
-3.72874e-07 2.9013e-05 -5.25722e-06
-7.87647e-07 6.42476e-05 -1.27668e-05
-9.49979e-07 9.38284e-05 -1.96189e-05
-8.70652e-07 0.000110175 -2.37663e-05
-6.54493e-07 0.000112764 -2.47674e-05
-0.000684547 -5.56519e-06 3.10832e-05
-0.000695008 -4.08415e-06 2.03992e-05
-0.000705798 -2.82202e-06 1.34622e-05
-0.000717198 -1.79669e-06 9.66949e-06
-8.22308e-07 4.03751e-05 -7.37637e-06
-0.00063376 -4.9321e-06 3.93551e-05
-1.45061e-06 7.51189e-05 -1.52175e-05
-1.7202e-06 0.000105611 -2.26178e-05
-1.61231e-06 0.000122886 -2.7229e-05
-1.27179e-06 0.000125783 -2.8424e-05
-0.000643509 -3.21305e-06 2.61295e-05
-0.000652842 -1.97498e-06 1.73159e-05
-0.000662385 -1.06215e-06 1.21545e-05
-0.000833371 -2.22062e-06 2.11836e-06
2.31641e-07 6.13734e-05 -1.00542e-05
1.82454e-07 5.23534e-05 -8.71543e-06
1.37896e-07 4.31897e-05 -7.28253e-06
1.03296e-07 3.56184e-05 -6.06167e-06
7.85585e-08 3.01191e-05 -5.15194e-06
-0.000848936 -1.74148e-06 1.46354e-06
-0.000863177 -1.25469e-06 2.00646e-06
-0.000875631 -9.04968e-07 2.28179e-06
-0.000886252 -6.53677e-07 2.37331e-06
-0.000809549 -2.04002e-06 3.55375e-06
1.35506e-07 7.68773e-05 -1.44099e-05
1.20981e-07 6.63801e-05 -1.26644e-05
1.02774e-07 5.53936e-05 -1.07142e-05
8.57351e-08 4.59792e-05 -8.97894e-06
7.1976e-08 3.88134e-05 -7.61701e-06
-0.000824083 -1.46338e-06 2.68799e-06
-0.000837334 -9.66492e-07 3.1542e-06
-0.000848971 -6.54011e-07 3.31351e-06
-0.00085892 -4.76983e-07 3.23082e-06
-0.000774614 -1.60111e-06 5.08153e-06
-7.27248e-08 9.1487e-05 -1.90022e-05
-2.46098e-08 7.96447e-05 -1.68579e-05
7.78317e-09 6.69752e-05 -1.43799e-05
2.71199e-08 5.58375e-05 -1.21045e-05
3.80077e-08 4.70956e-05 -1.02556e-05
-0.000787788 -8.73869e-07 4.14474e-06
-0.000799818 -4.18682e-07 4.44978e-06
-0.000810424 -1.91084e-07 4.42055e-06
-0.000819511 -1.34609e-07 4.09108e-06
-0.00072839 -8.06253e-07 7.65427e-06
-0.000671401 -9.36846e-08 9.69152e-06
-3.63813e-07 0.000105082 -2.34087e-05
-2.59641e-07 9.2042e-05 -2.08681e-05
-1.51374e-07 7.7841e-05 -1.79072e-05
-7.58731e-08 6.51111e-05 -1.51226e-05
-2.5815e-08 5.48941e-05 -1.28027e-05
-0.000739958 -1.70365e-07 5.8064e-06
-0.000750544 2.14216e-07 5.77142e-06
-0.000759912 3.38619e-07 5.39989e-06
-0.000767951 2.63876e-07 4.68248e-06
-7.67888e-07 0.000117639 -2.70322e-05
-5.79176e-07 0.000103534 -2.42046e-05
-3.74079e-07 8.79564e-05 -2.08705e-05
-2.25514e-07 7.37674e-05 -1.76725e-05
-1.23566e-07 6.21782e-05 -1.49553e-05
-0.000681092 5.46047e-07 7.25485e-06
-0.000690056 8.1525e-07 6.82734e-06
-0.000698029 8.06594e-07 6.06338e-06
-0.000704886 5.82279e-07 4.90877e-06
6.66087e-08 1.87514e-05 -2.75617e-06
5.39056e-08 1.72502e-05 -2.56666e-06
4.31521e-08 1.59494e-05 -2.39294e-06
3.31346e-08 1.44593e-05 -2.17921e-06
2.37345e-08 1.26163e-05 -1.9027e-06
-0.000909896 -1.66216e-07 1.33668e-06
-0.000917721 -1.76247e-07 1.12286e-06
-0.000924326 -1.81241e-07 9.1745e-07
-0.000929914 -1.67937e-07 7.77323e-07
-0.00093462 -1.28814e-07 7.41201e-07
4.01104e-08 1.08897e-05 -1.32758e-06
3.43427e-08 1.06179e-05 -1.30698e-06
2.89258e-08 1.03428e-05 -1.28143e-06
2.30762e-08 9.74754e-06 -1.21184e-06
1.69689e-08 8.72756e-06 -1.08534e-06
-0.000914025 -2.80132e-07 -1.69099e-07
-0.000922122 -2.58378e-07 -6.26484e-08
-0.000928973 -2.32373e-07 4.33654e-08
-0.000934785 -1.92531e-07 2.01924e-07
-0.000939689 -1.32813e-07 4.54914e-07
1.04327e-08 2.80355e-06 -2.79665e-07
1.22949e-08 3.76648e-06 -3.77959e-07
1.27605e-08 4.52301e-06 -4.5562e-07
1.155e-08 4.83493e-06 -4.87893e-07
9.15242e-09 4.65842e-06 -4.69888e-07
-0.00090506 -2.8798e-07 -9.35221e-07
-0.000913349 -2.58794e-07 -7.19037e-07
-0.000920388 -2.26385e-07 -5.04331e-07
-0.000926381 -1.84566e-07 -2.48064e-07
-0.000931456 -1.2918e-07 8.68141e-08
-1.98484e-08 -5.37339e-06 4.43253e-07
-1.03269e-08 -3.18845e-06 2.63278e-07
-3.95145e-09 -1.41163e-06 1.16577e-07
-4.6922e-10 -1.97844e-07 1.63268e-08
9.22429e-10 4.72184e-07 -3.89026e-08
-0.000883422 -2.13374e-07 -1.06216e-06
-0.000891754 -1.92982e-07 -8.71488e-07
-0.00089885 -1.70341e-07 -6.77931e-07
-0.000904915 -1.42046e-07 -4.51848e-07
-0.000910069 -1.05763e-07 -1.66564e-07
-4.89914e-08 -1.35192e-05 9.69156e-07
-3.22317e-08 -1.0138e-05 7.22943e-07
-2.02479e-08 -7.36272e-06 5.22473e-07
-1.2276e-08 -5.26176e-06 3.71699e-07
-7.22541e-09 -3.75198e-06 2.63945e-07
-0.000849547 -1.24468e-07 -7.14729e-07
-0.000857788 -1.12793e-07 -5.98118e-07
-0.000864824 -1.00181e-07 -4.81192e-07
-0.000870855 -8.54211e-08 -3.49494e-07
-0.000875992 -6.7657e-08 -1.89218e-07
1.73252e-08 1.04243e-05 -1.57646e-06
1.0249e-08 7.97254e-06 -1.21153e-06
4.88528e-09 5.36915e-06 -8.17148e-07
1.44202e-09 2.69603e-06 -4.09582e-07
-6.66325e-14 -4.15705e-10 6.28205e-11
-0.000938387 -5.42438e-07 3.86774e-07
-0.000941469 -3.33122e-07 4.57852e-07
-0.000943799 -1.29425e-07 4.8404e-07
-0.000945382 7.13836e-08 4.97508e-07
-0.000946219 2.74482e-07 5.35635e-07
1.21232e-08 7.32557e-06 -9.1231e-07
7.20045e-09 5.65167e-06 -7.06494e-07
3.42185e-09 3.82177e-06 -4.78277e-07
9.95723e-10 1.92079e-06 -2.4001e-07
-5.411e-13 -3.79482e-09 4.72115e-10
-0.000943613 -4.71969e-07 -2.58224e-07
-0.000946827 -2.84484e-07 2.10427e-08
-0.000949253 -1.01245e-07 2.55325e-07
-0.000950892 8.09491e-08 4.83699e-07
-0.000951746 2.66899e-07 7.49444e-07
6.62264e-09 4.07455e-06 -4.10661e-07
3.99666e-09 3.21255e-06 -3.24531e-07
1.9009e-09 2.19489e-06 -2.21854e-07
5.43216e-10 1.1076e-06 -1.11821e-07
-2.8605e-13 -2.45878e-09 2.47468e-10
-0.00093555 -3.65762e-07 -5.16789e-07
-0.000938894 -2.21339e-07 -2.01045e-07
-0.000941415 -7.90064e-08 8.06385e-08
-0.000943111 6.38767e-08 3.65346e-07
-0.000943979 2.10778e-07 6.92699e-07
1.13707e-09 7.17711e-07 -5.89272e-08
8.26854e-10 6.86604e-07 -5.63806e-08
4.19397e-10 5.06434e-07 -4.15638e-08
1.1933e-10 2.62412e-07 -2.15101e-08
-1.14481e-13 -1.38085e-09 1.12961e-10
-0.000914266 -2.44547e-07 -5.44883e-07
-0.00091769 -1.47975e-07 -2.70013e-07
-0.000920274 -5.26144e-08 -2.20545e-08
-0.000922009 4.31609e-08 2.27595e-07
-0.000922889 1.41398e-07 5.0932e-07
-4.13033e-09 -2.67685e-06 1.87356e-07
-2.17775e-09 -1.87173e-06 1.30695e-07
-9.50209e-10 -1.20556e-06 8.4021e-08
-2.47517e-10 -5.95419e-07 4.14382e-08
-5.03164e-14 -1.12547e-09 7.82458e-11
-0.000880222 -1.11159e-07 -3.58452e-07
-0.000883658 -6.55948e-08 -1.96712e-07
-0.000886251 -2.05606e-08 -4.99932e-08
-0.000887989 2.46156e-08 9.7079e-08
-0.000888865 7.07565e-08 2.60805e-07
-0.000894609 1.63732e-08 3.02519e-06
8.78452e-08 2.63324e-05 -4.57535e-06
6.96759e-08 2.36256e-05 -4.16409e-06
5.4733e-08 2.13204e-05 -3.79405e-06
4.1476e-08 1.89593e-05 -3.39104e-06
2.95257e-08 1.63223e-05 -2.92083e-06
-0.000902075 1.51338e-08 2.10343e-06
-0.000908403 -9.85059e-08 1.85337e-06
-0.000913745 -1.90414e-07 1.69902e-06
-0.000918238 -2.49256e-07 1.68247e-06
-0.000866457 3.84609e-07 4.42262e-06
9.47436e-08 3.36034e-05 -6.68969e-06
7.52258e-08 2.97239e-05 -6.0122e-06
5.93366e-08 2.64423e-05 -5.40536e-06
4.54695e-08 2.32391e-05 -4.77658e-06
3.30678e-08 1.98404e-05 -4.07925e-06
-0.00087361 2.87894e-07 3.38807e-06
-0.000879542 5.76997e-08 2.9542e-06