# vtk DataFile Version 3.0
vtk output
ASCII
DATASET POLYDATA
POINTS 8181 float
0.000902824 0.107858 0.0153041
0.0208273 0.108484 0.0130026
0.0407482 0.109119 0.0107013
0.0606793 0.10972 0.00856903
0.0508091 0.119345 0.011614
0.0609165 0.129411 0.0122028
0.0109866 0.117897 0.0164863
0.030895 0.118588 0.0139793
0.000640149 0.0883036 0.0105112
0.0205867 0.0888137 0.00859231
0.0405323 0.0893256 0.00667463
0.060486 0.0898057 0.00489845
0.0107049 0.0983855 0.0119325
0.0306374 0.0989608 0.00979199
0.0505747 0.0995216 0.00773084
0.0410076 0.128623 0.0145963
0.000420525 0.0687093 0.00560079
0.020388 0.0690997 0.00410985
0.0403561 0.0694883 0.00262084
0.06033 0.0698499 0.00124218
0.0104668 0.0787513 0.00725102
0.0304232 0.0792042 0.00552572
0.0503842 0.0796416 0.00386486
0.0510895 0.138766 0.0153426
0.00024266 0.0490892 0.000602952
0.0202265 0.049361 -0.000442066
0.0402118 0.0496299 -0.001485
0.0602008 0.0498787 -0.00245034
0.0102715 0.0590812 0.00248224
0.030248 0.0594117 0.00120369
0.0502287 0.0597286 -2.68534e-05
0.061204 0.148779 0.0158152
0.021107 0.127736 0.017133
0.000104961 0.0294521 -0.00444452
0.020099 0.0296086 -0.00505249
0.0400947 0.0297627 -0.00565921
0.0600926 0.0299046 -0.00622132
0.0101178 0.0393844 -0.00235481
0.0301083 0.0395948 -0.00318404
0.0501023 0.0397955 -0.00398277
0.0707494 0.119837 0.00917802
0.0705316 0.0998611 0.00564909
0.0710166 0.139497 0.0126392
0.0703574 0.0798499 0.00217805
0.0806341 0.109934 0.00625159
0.140785 0.131107 0.00555021
0.160782 0.131387 0.00497462
0.100605 0.110276 0.00459731
0.12059 0.110637 0.00342512
0.140588 0.110919 0.00261309
0.16059 0.111137 0.00209592
0.0907045 0.120122 0.00704211
0.110676 0.120578 0.00557918
0.130667 0.12094 0.00452645
0.150667 0.121221 0.00382816
0.170668 0.121443 0.00340584
0.0808617 0.129784 0.00957043
0.100816 0.130298 0.00779564
0.12079 0.130753 0.00647929
0.0804523 0.0898719 0.00292474
0.100433 0.0902152 0.00161341
0.120426 0.0904885 0.000629046
0.140428 0.0906995 -5.65893e-05
0.160432 0.0908627 -0.000497485
0.0904957 0.10013 0.00385085
0.11048 0.100486 0.00259052
0.130479 0.100766 0.0016799
0.150484 0.100983 0.0010714
0.170489 0.101153 0.00069842
0.0803107 0.0698908 -0.000255221
0.100302 0.0701402 -0.001279
0.120301 0.0703343 -0.00204957
0.140305 0.0704796 -0.00258945
0.160309 0.0705878 -0.00294089
0.0903383 0.0800993 0.000781471
0.110333 0.080365 -0.000240327
0.130336 0.0805689 -0.00098211
0.150344 0.0807217 -0.00148274
0.17035 0.0808375 -0.00179606
0.0801938 0.0499155 -0.00347148
0.100193 0.0500793 -0.00419167
0.120195 0.0502033 -0.00473441
0.140199 0.0502923 -0.00511591
0.160203 0.0503547 -0.00536606
0.0702157 0.0598306 -0.00129987
0.0902107 0.060063 -0.00227406
0.110212 0.060246 -0.00303495
0.130219 0.0603826 -0.00358948
0.150226 0.060481 -0.00396677
0.170233 0.0605516 -0.00420687
0.080093 0.0299387 -0.00680631
0.100096 0.0300278 -0.00721951
0.120099 0.030095 -0.00753352
0.140103 0.0301435 -0.00775763
0.160107 0.0301778 -0.00790908
0.0701003 0.0398877 -0.00479091
0.0901029 0.0400293 -0.0054139
0.110109 0.0401404 -0.00590372
0.130116 0.0402231 -0.00626464
0.150123 0.0402826 -0.00651516
0.17013 0.0403256 -0.00668093
0.180798 0.131508 0.00453562
0.180607 0.111199 0.00173786
0.180445 0.090888 -0.000776988
0.200788 0.131594 0.00430052
0.220759 0.131733 0.00416914
0.240721 0.131868 0.0040935
0.260677 0.132004 0.00405018
0.280626 0.132141 0.00403073
0.200598 0.111279 0.00150645
0.220578 0.111386 0.0013667
0.240552 0.111491 0.00127905
0.26052 0.1116 0.00122367
0.280483 0.111714 0.0011938
0.190688 0.121458 0.00305108
0.210669 0.121586 0.00286701
0.230643 0.121707 0.00275587
0.250611 0.121829 0.00268672
0.270571 0.121954 0.002645
0.200434 0.0909397 -0.0009843
0.22042 0.0910153 -0.00111485
0.240402 0.0910928 -0.00120027
0.260379 0.0911751 -0.00125571
0.280353 0.0912625 -0.00128547
0.190503 0.101132 0.000414746
0.210491 0.101226 0.00024127
0.230474 0.101316 0.000130956
0.250451 0.10141 5.87693e-05
0.270423 0.101508 1.36911e-05
0.180313 0.0705899 -0.00314719
0.200307 0.0706447 -0.00331761
0.220299 0.0706937 -0.00342949
0.240288 0.0707423 -0.00350553
0.260273 0.0707925 -0.00355729
0.280256 0.0708449 -0.00358801
0.190358 0.0808258 -0.00201079
0.210352 0.0808905 -0.0021622
0.230343 0.0809511 -0.00226272
0.250329 0.081012 -0.00233228
0.270311 0.0810748 -0.00237955
0.180201 0.0503791 -0.00550142
0.200199 0.0504132 -0.00562994
0.220195 0.050441 -0.00571574
0.240189 0.0504662 -0.00577475
0.26018 0.0504904 -0.00581511
0.28017 0.0505138 -0.00583917
0.190235 0.060564 -0.0043571
0.210234 0.0606054 -0.0044789
0.23023 0.0606416 -0.00456199
0.250222 0.0606759 -0.00462115
0.270212 0.0607093 -0.0046629
0.180104 0.0302088 -0.00799071
0.200104 0.0302245 -0.00806753
0.220103 0.0302363 -0.00811968
0.240101 0.0302463 -0.00815651
0.260098 0.0302554 -0.00818297
0.280093 0.0302641 -0.00820072
0.190131 0.0403467 -0.00677734
0.210133 0.0403687 -0.00686024
0.230132 0.0403871 -0.00691867
0.25013 0.0404039 -0.00696238
0.270125 0.0404201 -0.00699592
0.16101 0.151533 0.00824777
0.110904 0.140548 0.0088781
0.130884 0.140995 0.0077086
0.150876 0.141352 0.00692936
0.17087 0.14164 0.0064579
0.10108 0.1502 0.0113036
0.121042 0.150737 0.00986937
0.141023 0.151164 0.00886958
0.0909478 0.140006 0.0105079
0.0811305 0.149602 0.013226
0.151146 0.161308 0.0105762
0.141313 0.171005 0.012773
0.161287 0.171392 0.0120928
0.111191 0.160353 0.0126564
0.131159 0.16086 0.01139
0.0912497 0.159768 0.0144232
0.101398 0.169933 0.0153681
0.121349 0.170546 0.0138677
0.131521 0.180783 0.0155897
0.151483 0.181244 0.0147429
0.181015 0.151652 0.00791925
0.190888 0.14163 0.00621073
0.201004 0.151739 0.00769767
0.220961 0.151908 0.00758711
0.240909 0.152074 0.00753549
0.260851 0.152241 0.00751861
0.21086 0.141764 0.00604243
0.230822 0.141914 0.00594857
0.250777 0.142066 0.00589813
0.270725 0.142224 0.005876
0.171132 0.161565 0.0101228
0.191121 0.161661 0.00988828
0.211085 0.161815 0.00974958
0.231034 0.161986 0.00968854
0.250975 0.162155 0.00967031
0.270909 0.162325 0.00967721
0.181266 0.171535 0.011817
0.201229 0.171713 0.0116536
0.221175 0.171891 0.0115813
0.241113 0.172054 0.0115641
0.261043 0.172208 0.011575
0.171452 0.181484 0.0142825
0.191403 0.181744 0.0141073
0.211348 0.181926 0.0140115
0.231275 0.182103 0.0139918
0.251194 0.182254 0.0140081
0.271105 0.182383 0.0140404
0.300558 0.132121 0.00387105
0.320522 0.132206 0.00377297
0.34048 0.132289 0.00370776
0.360433 0.132368 0.00367729
0.380382 0.132442 0.00368346
0.300434 0.111678 0.00106173
0.320411 0.111744 0.000956321
0.340382 0.11181 0.000885613
0.360348 0.111874 0.000851834
0.380309 0.111936 0.000857159
0.290504 0.121952 0.00256001
0.310478 0.122028 0.00243897
0.330447 0.122103 0.00235217
0.35041 0.122176 0.00230168
0.370367 0.122245 0.00228955
0.39032 0.122311 0.00231777
0.30032 0.091219 -0.00140417
0.320309 0.0912658 -0.00151111
0.340292 0.0913148 -0.00158645
0.36027 0.091365 -0.00162785
0.380244 0.0914153 -0.00163293
0.290375 0.101491 -6.17047e-05
0.310362 0.101546 -0.00018691
0.330343 0.101603 -0.00028026
0.350319 0.10166 -0.000339495
0.37029 0.101717 -0.000362382
0.390257 0.101772 -0.000346631
0.300235 0.0708236 -0.00368297
0.320227 0.0708584 -0.00376823
0.340214 0.0708932 -0.0038304
0.360198 0.0709271 -0.00386728
0.380179 0.0709594 -0.00387676
0.290279 0.0810642 -0.00244962
0.31027 0.081107 -0.00255106
0.330256 0.0811494 -0.00262926
0.350239 0.0811904 -0.00268199
0.370217 0.0812294 -0.00270713
0.390191 0.0812655 -0.00270261
0.300157 0.0505142 -0.00590808
0.320152 0.0505399 -0.00597185
0.340144 0.0505634 -0.00601907
0.360133 0.0505841 -0.00604811
0.38012 0.0506016 -0.00605746
0.290193 0.0607072 -0.00471882
0.310187 0.0607402 -0.00479701
0.330178 0.0607709 -0.00485857
0.350165 0.0607985 -0.00490174
0.37015 0.0608226 -0.00492494
0.390132 0.0608426 -0.00492661
0.300088 0.0302766 -0.00823711
0.320085 0.0302895 -0.00827262
0.34008 0.0303014 -0.00830043
0.360073 0.0303119 -0.00831969
0.380065 0.0303209 -0.00832965
0.290118 0.0404294 -0.00703395
0.310114 0.0404478 -0.00708166
0.330108 0.040465 -0.00712119
0.350099 0.0404807 -0.00715152
0.37009 0.0404944 -0.00717175
0.390078 0.040506 -0.00718117
0.400299 0.132431 0.00371684
0.420236 0.132457 0.00366584
0.440171 0.132482 0.00364761
0.460104 0.132504 0.00366238
0.480036 0.132523 0.00371203
0.499965 0.132538 0.00379999
0.400236 0.111928 0.000878996
0.420186 0.111946 0.000828058
0.440134 0.111966 0.000810545
0.46008 0.111987 0.000826668
0.480024 0.11201 0.000878065
0.499967 0.112032 0.000967703
0.410239 0.122283 0.00229426
0.430182 0.122306 0.00225844
0.450123 0.122329 0.00225595
0.470062 0.122352 0.00228782
0.49 0.122375 0.00235647
0.40018 0.0914022 -0.00162094
0.420143 0.0914123 -0.00167562
0.440105 0.0914265 -0.00169939
0.460065 0.0914445 -0.00169225
0.480023 0.091466 -0.00165291
0.49998 0.0914903 -0.00157879
0.410187 0.101741 -0.00038101
0.430144 0.101757 -0.000423127
0.450099 0.101775 -0.000433648
0.470053 0.101797 -0.000411891
0.490005 0.10182 -0.000355817
0.400131 0.0709489 -0.00387874
0.420104 0.0709596 -0.00392237
0.440075 0.0709715 -0.00394232
0.460045 0.0709843 -0.00393842
0.480015 0.0709978 -0.00390953
0.499982 0.0710113 -0.00385353
0.410138 0.0812497 -0.00274119
0.430106 0.0812636 -0.00277584
0.450072 0.0812777 -0.00278589
0.470037 0.0812918 -0.00277068
0.490001 0.0813053 -0.00272845
0.400086 0.0505888 -0.006062
0.420068 0.0506013 -0.00609581
0.440049 0.0506124 -0.00611244
0.460029 0.0506217 -0.00611163
0.480008 0.0506292 -0.00609243
0.499986 0.0506343 -0.00605323
0.410095 0.0608352 -0.00496025
0.430072 0.0608488 -0.00498801
0.450049 0.0608602 -0.00499771
0.470024 0.0608692 -0.00498873
0.489999 0.0608754 -0.00495971
0.400048 0.0303295 -0.0083359
0.420038 0.0303337 -0.0083531
0.440027 0.0303363 -0.00836098
0.460015 0.0303373 -0.00835966
0.480004 0.0303366 -0.00834899
0.499992 0.0303341 -0.00832852
0.410058 0.0405132 -0.00719997
0.430044 0.0405193 -0.00721677
0.45003 0.0405232 -0.00722335
0.470015 0.040525 -0.00721975
0.489999 0.0405245 -0.0072057
0.280775 0.152346 0.00757695
[...]
POINT_DATA 8181
VECTORS alpha float
3.50694e-05 0.00279565 0.000692173
1.85001e-05 0.00164009 0.000373675
7.77321e-06 0.000781856 0.000162673
3.55852e-06 0.00040588 7.69837e-05
0.000311599 8.77598e-06 -3.12247e-05
4.85711e-06 0.0003946 7.81387e-05
0.000182681 5.31416e-06 -1.99111e-05
0.00027737 8.19521e-06 -3.02599e-05
2.81714e-05 0.0029414 0.00073914
1.4181e-05 0.00171451 0.000391759
5.6228e-06 0.000806785 0.000166013
2.42224e-06 0.000411056 7.59324e-05
0.000141006 3.30214e-06 -1.26003e-05
0.00021154 4.98247e-06 -1.88854e-05
0.000234352 5.17606e-06 -1.93201e-05
9.96193e-06 0.000745342 0.000158059
2.03014e-05 0.00304172 0.000772231
9.75981e-06 0.0017622 0.000404482
3.66173e-06 0.000819076 0.00016818
1.49331e-06 0.000409817 7.49834e-05
9.67549e-05 1.68392e-06 -6.53577e-06
0.000141832 2.4602e-06 -9.56284e-06
0.000152843 2.4635e-06 -9.50981e-06
0.000383396 1.23222e-05 -4.46282e-05
1.24586e-05 0.00309411 0.000789132
5.68299e-06 0.0017819 0.000410788
2.0181e-06 0.000818373 0.000168762
7.90991e-07 0.000402155 7.39081e-05
5.07145e-05 5.78183e-07 -2.25622e-06
6.94907e-05 7.83981e-07 -3.0822e-06
6.85055e-05 7.13296e-07 -2.8011e-06
5.99252e-06 0.000377135 7.90384e-05
2.2181e-05 0.00154132 0.000350307
5.59242e-06 0.00309729 0.000787642
2.31766e-06 0.0017731 0.000409273
7.64957e-07 0.000804611 0.000167004
3.03801e-07 0.000388151 7.2234e-05
3.72774e-06 2.05795e-08 -8.05504e-08
-4.2089e-06 -2.287e-08 9.05862e-08
-1.72514e-05 -8.60842e-08 3.42054e-07
0.000321564 8.26802e-06 -2.84056e-05
0.000238462 4.7214e-06 -1.74894e-05
0.000399028 1.21018e-05 -4.06137e-05
0.000151053 2.12196e-06 -8.48698e-06
1.76786e-06 0.000213422 3.65781e-05
9.26112e-07 8.96826e-05 1.44434e-05
9.95083e-07 9.87172e-05 1.56361e-05
9.45955e-07 0.000123801 1.96946e-05
6.9686e-07 9.49605e-05 1.42495e-05
7.05418e-07 9.72009e-05 1.39972e-05
7.99173e-07 0.000109917 1.54271e-05
0.00032235 6.80443e-06 -2.34383e-05
0.000322248 5.45266e-06 -1.72971e-05
0.000325258 4.27935e-06 -1.18363e-05
0.000332489 3.3989e-06 -7.42625e-06
0.000343191 2.83282e-06 -4.11725e-06
2.53536e-06 0.000212267 3.87835e-05
1.38233e-06 0.000123934 2.13702e-05
9.79376e-07 9.18929e-05 1.52015e-05
1.13463e-06 0.00021133 3.4769e-05
5.96693e-07 0.000121882 1.83239e-05
4.60893e-07 9.66201e-05 1.35182e-05
5.0223e-07 0.000103193 1.37092e-05
6.03451e-07 0.000119346 1.53355e-05
0.000236187 3.74944e-06 -1.42062e-05
0.000234265 2.95185e-06 -1.04303e-05
0.00023588 2.29269e-06 -7.15413e-06
0.000241702 1.82077e-06 -4.53797e-06
0.000250833 1.53673e-06 -2.56848e-06
6.64047e-07 0.000205969 3.33863e-05
3.51887e-07 0.000118099 1.73376e-05
2.93429e-07 9.67581e-05 1.31079e-05
3.51476e-07 0.000107477 1.37211e-05
4.53494e-07 0.000126728 1.55468e-05
0.000145791 1.62835e-06 -6.67335e-06
0.000142153 1.23047e-06 -4.82916e-06
0.000142401 9.21549e-07 -3.31485e-06
0.000146748 7.07883e-07 -2.14263e-06
0.000154163 5.80143e-07 -1.26644e-06
3.38182e-07 0.000197494 3.22855e-05
1.90457e-07 0.000112573 1.66477e-05
1.80133e-07 9.54274e-05 1.29987e-05
2.43184e-07 0.000110043 1.40897e-05
3.39348e-07 0.000132015 1.61901e-05
6.08659e-05 5.22411e-07 -2.31185e-06
5.27459e-05 3.6234e-07 -1.60318e-06
4.75066e-05 2.45365e-07 -1.07258e-06
4.6429e-05 1.71511e-07 -7.20355e-07
4.92602e-05 1.27305e-07 -4.82786e-07
5.48555e-05 1.02111e-07 -3.0762e-07
1.41411e-07 0.000186305 3.11491e-05
9.82989e-08 0.000105509 1.60585e-05
1.14044e-07 9.27374e-05 1.30684e-05
1.76431e-07 0.000110957 1.47509e-05
2.64266e-07 0.000135255 1.72591e-05
-3.06927e-05 -1.17143e-07 5.58347e-07
-4.15961e-05 -1.2663e-07 6.0872e-07
-4.83979e-05 -1.10429e-07 5.30347e-07
-5.08226e-05 -8.31121e-08 3.88481e-07
-4.95835e-05 -5.77507e-08 2.4707e-07
-4.59231e-05 -4.04713e-08 1.40671e-07
1.06305e-06 0.00010758 1.65682e-05
9.07319e-07 0.00012074 1.64432e-05
7.46045e-07 0.0001319 1.6436e-05
1.07835e-06 0.000110697 1.69529e-05
9.98988e-07 0.000107093 1.63889e-05
8.68017e-07 9.82236e-05 1.5049e-05
7.15413e-07 8.64189e-05 1.32609e-05
5.6611e-07 7.38444e-05 1.13425e-05
9.55955e-07 0.000124151 1.67729e-05
8.95991e-07 0.000119655 1.61114e-05
7.84077e-07 0.000109246 1.46937e-05
6.48984e-07 9.57608e-05 1.28721e-05
5.14899e-07 8.16815e-05 1.09674e-05
0.000355627 1.90803e-06 -3.25929e-06
0.000368556 1.84329e-06 -1.86439e-06
0.000380585 1.92143e-06 -1.03763e-06
0.000391106 2.06567e-06 -5.23762e-07
0.000399997 2.21381e-06 -1.06612e-07
8.24088e-07 0.000135583 1.66849e-05
7.83545e-07 0.000130269 1.5922e-05
6.92333e-07 0.000118497 1.44244e-05
5.76857e-07 0.000103563 1.25659e-05
4.59857e-07 8.82203e-05 1.06686e-05
0.000261622 9.56788e-07 -2.15183e-06
0.000272807 9.5906e-07 -1.31485e-06
0.000283177 1.04326e-06 -7.95396e-07
0.000292207 1.16382e-06 -4.39264e-07
0.000299815 1.28366e-06 -1.1478e-07
6.29094e-07 0.000140731 1.67367e-05
6.70364e-07 0.000144646 1.6932e-05
6.50817e-07 0.000138581 1.6063e-05
5.84229e-07 0.000125637 1.44597e-05
4.93189e-07 0.000109505 1.25243e-05
3.97915e-07 9.31629e-05 1.05884e-05
0.000163116 3.89235e-07 -1.09329e-06
0.000172323 3.78854e-07 -7.07025e-07
0.000180797 4.04853e-07 -4.60425e-07
0.000188104 4.47067e-07 -2.84016e-07
0.000194206 4.8873e-07 -1.1656e-07
4.87576e-07 0.000147237 1.7561e-05
5.34496e-07 0.000151253 1.77149e-05
5.29198e-07 0.000144537 1.67176e-05
4.82102e-07 0.000130641 1.49603e-05
4.12005e-07 0.000113587 1.28882e-05
3.36269e-07 9.65263e-05 1.08519e-05
6.17981e-05 8.58337e-08 -2.99746e-07
6.88891e-05 8.01255e-08 -2.09772e-07
7.53357e-05 8.19101e-08 -1.45309e-07
8.08082e-05 8.70053e-08 -9.32305e-08
8.53174e-05 9.13748e-08 -3.92509e-08
3.79416e-07 0.000151567 1.88901e-05
4.26373e-07 0.00015561 1.90239e-05
4.29281e-07 0.000148334 1.78818e-05
3.96185e-07 0.000133683 1.59316e-05
3.42542e-07 0.000115953 1.36744e-05
2.82913e-07 9.84188e-05 1.14891e-05
-4.1149e-05 -2.09151e-08 1.04168e-07
-3.63041e-05 -1.38513e-08 5.84885e-08
-3.20078e-05 -1.05465e-08 3.30621e-08
-2.84827e-05 -8.89467e-09 1.79132e-08
-2.56705e-05 -7.73765e-09 7.02001e-09
1.14509e-06 8.60158e-05 1.58249e-05
0.000404552 8.59524e-06 -2.47551e-05
0.000408882 6.94572e-06 -1.70876e-05
0.000417373 5.66368e-06 -1.0783e-05
0.000429436 4.80872e-06 -5.97021e-06
1.83383e-06 0.000122075 2.34322e-05
1.25306e-06 8.73684e-05 1.63821e-05
1.11011e-06 8.07869e-05 1.49203e-05
0.000402856 1.03622e-05 -3.31644e-05
3.21237e-06 0.000207705 4.12446e-05
0.000495776 8.07689e-06 -1.42386e-05
1.2113e-06 7.04671e-05 1.5365e-05
1.16223e-06 7.17257e-05 1.56435e-05
0.00048052 1.17957e-05 -3.23931e-05
0.000486152 9.47237e-06 -2.27067e-05
0.000477034 1.45775e-05 -4.23334e-05
2.21341e-06 0.000117995 2.59852e-05
1.4544e-06 8.12365e-05 1.77741e-05
0.000555505 1.28803e-05 -2.61413e-05
0.000566119 9.86993e-06 -1.66562e-05
1.18082e-06 9.24864e-05 1.68872e-05
0.000443276 2.92071e-06 -4.03435e-06
1.15159e-06 9.52789e-05 1.7338e-05
1.05368e-06 9.26431e-05 1.68786e-05
9.07011e-07 8.54794e-05 1.5628e-05
7.41139e-07 7.55671e-05 1.38799e-05
0.000457695 2.87926e-06 -1.97057e-06
0.000471188 3.03781e-06 -8.7755e-07
0.000483048 3.28135e-06 -2.05872e-07
0.000493117 3.5204e-06 3.38071e-07
0.000508985 5.9522e-06 -8.18367e-06
0.000524175 4.20217e-06 -4.25618e-06
0.00053987 4.00934e-06 -1.50422e-06
0.000554632 4.06591e-06 -1.57167e-07
0.000567656 4.23947e-06 6.00405e-07
0.00057875 4.41449e-06 1.13161e-06
1.15041e-06 7.58708e-05 1.65579e-05
1.07786e-06 7.82355e-05 1.70894e-05
9.78223e-07 7.65668e-05 1.67695e-05
8.37704e-07 7.11976e-05 1.56684e-05
6.81118e-07 6.33303e-05 1.40209e-05
0.000580261 6.54785e-06 -9.66922e-06
0.000596454 5.9423e-06 -3.69088e-06
0.00061313 5.04557e-06 -4.36097e-07
0.00062887 4.38053e-06 9.71763e-07
0.000642803 3.85181e-06 1.60255e-06
0.000654707 3.31801e-06 1.89622e-06
3.96572e-07 6.20139e-05 9.50346e-06
2.99709e-07 5.16642e-05 7.93084e-06
2.23403e-07 4.29771e-05 6.61098e-06
1.64058e-07 3.57473e-05 5.51168e-06
1.1775e-07 2.96082e-05 4.57623e-06
3.77277e-07 6.85959e-05 9.1648e-06
2.86568e-07 5.73297e-05 7.65631e-06
2.14534e-07 4.79308e-05 6.40241e-06
1.579e-07 4.00992e-05 5.3603e-06
1.13153e-07 3.33929e-05 4.46909e-06
0.000407954 1.23939e-06 -2.35649e-06
0.000414204 1.28893e-06 -1.74767e-06
0.000419566 1.30607e-06 -1.07508e-06
0.000424242 1.29559e-06 -3.41227e-07
0.000428336 1.26279e-06 4.5058e-07
0.000431884 1.21173e-06 1.30047e-06
3.45326e-07 7.41189e-05 8.88344e-06
2.63907e-07 6.21313e-05 7.42187e-06
1.98583e-07 5.21812e-05 6.22074e-06
1.46572e-07 4.3878e-05 5.22698e-06
1.04909e-07 3.67121e-05 4.37524e-06
0.000306555 6.15186e-07 -1.80561e-06
0.000311934 6.81702e-07 -1.39058e-06
0.000316596 7.28836e-07 -9.24199e-07
0.000320709 7.58931e-07 -4.08271e-07
0.000324354 7.74372e-07 1.56657e-07
0.000327545 7.76649e-07 7.73358e-07
3.0641e-07 7.83105e-05 8.79612e-06
2.36461e-07 6.58053e-05 7.35341e-06
1.79576e-07 5.54758e-05 6.17475e-06
1.33605e-07 4.68471e-05 5.20037e-06
9.62008e-08 3.93502e-05 4.36193e-06
0.00019946 2.99678e-07 -8.92809e-07
0.000203774 3.18154e-07 -7.0781e-07
0.000207546 3.26565e-07 -4.91174e-07
0.000210916 3.25957e-07 -2.44173e-07
0.000213939 3.17409e-07 3.25306e-08
0.000216614 3.01539e-07 3.40156e-07
2.6584e-07 8.11806e-05 9.01771e-06
2.07073e-07 6.83712e-05 7.54695e-06
1.58648e-07 5.78366e-05 6.34966e-06
1.18936e-07 4.90257e-05 5.35872e-06
8.6125e-08 4.13205e-05 4.50144e-06
8.91027e-05 1.01849e-07 -2.82444e-07
9.22992e-05 9.99991e-08 -2.28988e-07
9.5142e-05 9.46422e-08 -1.632e-07
9.77353e-05 8.6046e-08 -8.54577e-08
0.000100107 7.44535e-08 4.14133e-09
0.000102237 5.99639e-08 1.06124e-07
2.28974e-07 8.2828e-05 9.56202e-06
1.8067e-07 6.99028e-05 8.00862e-06
1.4031e-07 5.9317e-05 6.7502e-06
1.06672e-07 5.04526e-05 5.70865e-06
7.83734e-08 4.2652e-05 4.80363e-06
-2.33831e-05 -1.08711e-08 3.462e-08
-2.14031e-05 -9.52342e-09 2.55317e-08
-1.95867e-05 -8.05525e-09 1.69288e-08
-1.78633e-05 -6.52777e-09 8.88225e-09
-1.62297e-05 -5.01805e-09 1.5256e-09
-1.47237e-05 -3.58639e-09 -5.10245e-09
7.95784e-08 2.41698e-05 3.75907e-06
5.14137e-08 1.91498e-05 2.97633e-06
2.97198e-08 1.4315e-05 2.2231e-06
1.39995e-08 9.5418e-06 1.48058e-06
4.09884e-09 4.77475e-06 7.40299e-07
3.49995e-13 1.39893e-09 2.16741e-10
8.11674e-08 2.73807e-05 3.67272e-06
5.20769e-08 2.17541e-05 2.91278e-06
2.96417e-08 1.62875e-05 2.17734e-06
1.35123e-08 1.08646e-05 1.45044e-06
3.62271e-09 5.4381e-06 7.25251e-07
1.18456e-13 1.34646e-09 1.79456e-10
0.000434826 3.55354e-07 -9.53117e-07
0.000437289 4.02762e-07 -2.74304e-07
0.000439147 4.41156e-07 4.20564e-07
0.000440381 4.64473e-07 1.16016e-06
0.000440982 4.68102e-07 1.97038e-06
7.90659e-08 3.02193e-05 3.59628e-06
5.05254e-08 2.407e-05 2.85491e-06
2.84344e-08 1.80481e-05 2.13547e-06
1.26165e-08 1.20479e-05 1.42338e-06
3.11003e-09 6.03189e-06 7.1226e-07
-1.34521e-14 7.3661e-10 8.70279e-11
0.000330221 1.38048e-07 -8.11616e-07
0.000332461 2.11874e-07 -3.2484e-07
0.000334156 2.81191e-07 1.70223e-07
0.000335287 3.4179e-07 6.93929e-07
0.000335842 3.90232e-07 1.26511e-06
7.31831e-08 3.25e-05 3.58594e-06
4.67847e-08 2.59384e-05 2.85232e-06
2.62245e-08 1.94719e-05 2.1362e-06
1.14898e-08 1.30059e-05 1.42495e-06
2.70657e-09 6.51319e-06 7.13414e-07
-5.84734e-14 1.06002e-09 1.16214e-10
0.000218894 9.04053e-08 -4.16455e-07
0.000220786 1.08985e-07 -1.72036e-07
0.000222224 1.24639e-07 7.95647e-08
0.000223188 1.35415e-07 3.48463e-07
0.000223666 1.39722e-07 6.43992e-07
6.57158e-08 3.4223e-05 3.70185e-06
4.20463e-08 2.73577e-05 2.9506e-06
2.3492e-08 2.05549e-05 2.21242e-06
1.01773e-08 1.37343e-05 1.47658e-06
2.29599e-09 6.87876e-06 7.39373e-07
-9.57742e-14 1.25119e-09 1.34592e-10
0.000104077 4.97866e-08 -1.4557e-07
0.000105598 4.56257e-08 -6.38836e-08
0.000106756 4.00324e-08 2.21362e-08
0.000107534 3.24267e-08 1.15597e-07
0.000107922 2.23582e-08 2.19303e-07
5.78333e-08 3.53811e-05 3.97273e-06
3.72808e-08 2.83277e-05 3.1663e-06
2.09953e-08 2.13022e-05 2.37256e-06
9.20437e-09 1.42395e-05 1.58173e-06
2.15e-09 7.13315e-06 7.90949e-07
-5.57233e-14 1.19529e-09 1.32419e-10
-1.33967e-05 -1.76212e-09 9.06488e-09
-1.22956e-05 -9.32237e-10 3.22247e-09
-1.14522e-05 -2.11175e-10 -1.70355e-09
-1.08845e-05 4.60041e-10 -6.20412e-09
-1.05995e-05 1.14451e-09 -1.07726e-08
5.89125e-07 6.46682e-05 1.18686e-05
5.33801e-07 5.43542e-05 1.20701e-05
0.000502169 1.31385e-06 -2.54802e-06
4.00335e-07 5.42704e-05 1.00255e-05
2.99903e-07 4.50369e-05 8.34877e-06
2.21175e-07 3.72247e-05 6.92933e-06
1.60558e-07 3.07296e-05 5.74742e-06
1.13943e-07 2.52685e-05 4.7503e-06
0.000509248 1.83447e-06 -2.456e-06
0.00051534 2.00091e-06 -1.79222e-06
0.000520629 2.12717e-06 -1.06346e-06
0.000525243 2.22339e-06 -2.7747e-07
0.00058849 1.55368e-06 -1.50637e-06
3.75934e-07 4.56082e-05 1.0278e-05
2.78796e-07 3.76375e-05 8.51923e-06
2.02856e-07 3.08297e-05 7.01178e-06
1.45008e-07 2.518e-05 5.75585e-06
1.01299e-07 2.04919e-05 4.70804e-06
0.000596313 2.49408e-06 -2.12658e-06
0.000603042 2.67139e-06 -1.60194e-06
0.000608863 2.79596e-06 -1.03285e-06
0.000613924 2.88776e-06 -4.42317e-07
0.000673554 3.26216e-06 -1.28869e-06
0.000680824 3.22293e-06 -9.99485e-07
0.000687104 3.10624e-06 -6.61666e-07
0.00069256 2.93827e-06 -3.02952e-07
0.000664889 2.61199e-06 1.2408e-06
0.000529177 7.43834e-07 1.10017e-06
7.45161e-08 2.04944e-05 3.89026e-06
4.82405e-08 1.61766e-05 3.07008e-06
2.80746e-08 1.20653e-05 2.29028e-06
1.34241e-08 8.03281e-06 1.52594e-06
4.08029e-09 4.01746e-06 7.64167e-07
5.78039e-13 1.6017e-09 3.05217e-10
0.000532421 1.45503e-07 -7.67203e-07
0.00053515 3.836e-07 -8.65406e-08
0.000537206 6.04655e-07 6.20361e-07
0.000538571 8.03108e-07 1.38544e-06
0.000539233 9.76103e-07 2.23567e-06
0.000618238 1.19754e-06 4.57397e-07
0.000697221 8.07339e-07 1.39037e-07
6.4122e-08 1.65065e-05 3.80735e-06
4.13864e-08 1.29534e-05 2.99051e-06
2.41079e-08 9.62714e-06 2.2253e-06
1.16007e-08 6.39748e-06 1.48125e-06
3.59191e-09 3.19681e-06 7.41747e-07
8.31608e-13 1.90796e-09 4.4374e-10
0.000621707 2.57427e-07 -2.48447e-07
0.000624643 5.22484e-07 4.21326e-07
0.000626853 7.71741e-07 1.09598e-06
0.000628322 1.01177e-06 1.77942e-06
0.000629039 1.25112e-06 2.47358e-06
0.00070097 6.40206e-07 2.41586e-07
0.000704085 5.4965e-07 8.05096e-07
0.000706431 4.34163e-07 1.3757e-06
0.000707992 3.04559e-07 1.9543e-06
0.000708757 1.73922e-07 2.53974e-06
-0.00022714 -0.00224879 0.000917551
-0.000205532 -0.00199808 0.000868328
-0.000192829 -8.79468e-05 -0.000197511
-0.00022977 -9.99386e-05 -0.000203002
-0.000175166 -0.00172504 0.000793236
-0.000267932 -0.000107792 -0.000197495
-0.000170302 -0.00104118 0.000573144
-0.000528746 2.03187e-05 0.000253752
-7.6158e-05 0.000663911 -0.00038455
-0.00029708 2.03266e-05 0.000212888
-0.000461818 4.95986e-05 0.000314897
-8.10053e-05 0.000316249 -0.000210564
-6.31858e-05 0.00172393 -0.00061269
-0.000128252 0.000877972 -0.000445413
-0.000383529 6.92021e-05 0.000357518
-0.000243334 3.0385e-05 0.000242295
-0.000120693 0.000420012 -0.000230582
-0.00018303 0.00109258 -0.000461809
-0.000139583 -0.00143551 0.000690748
-0.000142746 -0.000870431 0.000519225
-0.000412868 -0.000183932 -0.00028445
-0.000101646 -0.00113075 0.000562935
-0.000305734 -0.000110917 -0.000178569
-0.00047061 -0.000189919 -0.000255412
-0.000103128 -0.000449692 0.000321277
-0.000340759 -0.000107421 -0.000148959
-0.000108627 -0.000695059 0.000443428
-8.24854e-05 -0.00036922 0.000290146
-6.54777e-05 -0.000810577 0.000413516
-7.24736e-05 -0.000515596 0.000347312
-0.000524346 -0.000185536 -0.000207814
-0.000370629 -9.73539e-05 -0.000107021
-0.000569278 -0.000167071 -0.000146915
-3.18708e-05 -0.000475461 0.000245016
-3.67429e-05 -0.000330935 0.000232245
-6.36737e-06 -0.000127915 6.53986e-05
-0.000391589 -8.10857e-05 -5.57794e-05
-0.000600711 -0.000138434 -7.23371e-05
-0.000400962 -6.08115e-05 2.02296e-07
-1.04246e-05 -0.000144411 0.000102953
-0.0006148 -0.000101176 7.83639e-06
7.48572e-06 0.000232273 -0.000115642
1.31284e-06 4.78078e-05 -3.37291e-05
6.9374e-06 0.000601855 -0.000286015
-0.00039605 -3.75068e-05 5.99082e-05
-0.000607628 -5.96396e-05 9.35369e-05
-0.000376509 -1.41897e-05 0.000117528
-5.46579e-06 0.000246039 -0.000167809
-3.22226e-05 0.000451976 -0.000288801
-0.000578583 -1.75573e-05 0.000176966
-5.54938e-06 0.000978243 -0.000433741
-0.000342939 5.44166e-06 0.000170505
-3.48511e-05 0.00135796 -0.000543158
-0.000660142 6.37524e-05 6.6921e-05
-0.000656492 7.30051e-05 5.30096e-05
-2.50505e-05 0.00010506 -0.00012199
-1.88851e-05 8.903e-05 -0.000106664
-0.000653324 7.80527e-05 4.27356e-05
-0.000650857 7.50417e-05 4.25393e-05
-0.000648763 7.3576e-05 3.51536e-05
-1.48094e-05 9.78272e-05 -9.28151e-05
-1.35994e-05 7.44388e-05 -9.1332e-05
-0.000645053 6.98403e-05 3.71785e-05
-9.96193e-06 8.30638e-05 -7.9766e-05
-9.2467e-06 6.23732e-05 -7.80882e-05
-6.68205e-06 5.29221e-05 -6.76328e-05
-5.02027e-06 4.56124e-05 -5.91225e-05
-3.67748e-06 3.9629e-05 -5.165e-05
-2.74471e-06 3.39808e-05 -4.47147e-05
-0.000645844 6.22786e-05 3.79334e-05
-0.000647155 5.29838e-05 3.44975e-05
-0.000646833 4.46351e-05 3.23629e-05
-0.000647102 3.37846e-05 2.79857e-05
-0.000651402 2.07331e-05 2.57579e-05
-7.11396e-06 7.08212e-05 -6.92807e-05
-5.26074e-06 6.11639e-05 -6.0502e-05
-3.78818e-06 5.31345e-05 -5.27234e-05
-2.80092e-06 4.56109e-05 -4.56147e-05
-1.90967e-06 3.81018e-05 -3.8283e-05
-1.8725e-06 2.83452e-05 -3.76012e-05
-1.18669e-06 2.28439e-05 -3.03848e-05
-7.00114e-07 1.7183e-05 -2.29925e-05
-3.28536e-07 1.14888e-05 -1.54075e-05
-9.46889e-08 5.77867e-06 -7.73266e-06
-0.000651901 1.83033e-05 1.89422e-05
-0.000653899 1.36331e-05 9.34546e-06
-0.000653567 6.51355e-06 3.29944e-06
-0.000652678 4.16869e-06 -5.40245e-06
-0.000651277 1.63957e-06 -1.38552e-05
-1.20226e-06 3.07341e-05 -3.09175e-05
-7.11349e-07 2.31584e-05 -2.34149e-05
-3.37411e-07 1.54929e-05 -1.56712e-05
-1.00003e-07 7.79216e-06 -7.85203e-06
-0.000570286 1.5657e-05 1.70947e-05
-0.000571313 1.16368e-05 9.87491e-06
-0.000570792 3.1709e-06 4.33615e-06
-0.000569623 1.50644e-06 -1.74975e-06
-0.000568128 -3.32845e-07 -7.64199e-06
-3.70379e-11 1.45309e-08 -1.9313e-08
-4.49778e-05 0.000217383 -0.000167313
-0.000473024 9.00875e-05 0.000369369
-0.000549875 6.45804e-05 0.000323593
-5.86996e-05 0.000151778 -0.000103594
-0.000614533 2.80699e-05 0.00026202
-3.47582e-05 9.90828e-05 -8.23689e-05
-0.000481768 0.000113177 0.000355595
-1.77422e-06 8.6287e-06 -9.37688e-06
-1.49616e-05 5.14554e-05 -4.99695e-05
-0.000550694 9.40866e-05 0.00033016
-0.000612239 6.33082e-05 0.000286111
-2.04048e-05 4.47823e-05 -3.64283e-05
-4.69455e-05 0.000113199 -0.000111903
5.72191e-06 -2.23628e-05 2.93412e-05
-0.000715028 -2.82434e-05 0.000141644
4.27603e-06 -1.48626e-05 2.27306e-05
-0.000721678 -3.06084e-05 0.000114612
-1.75689e-06 5.7652e-06 -1.00461e-05
-0.000727793 -2.54017e-05 8.29095e-05
-0.000662743 2.31058e-05 0.000230658
-7.84433e-06 1.87365e-05 -1.86262e-05
-0.000560662 0.000105347 0.000291892
-0.000690297 1.36301e-05 0.000190432
-0.000706424 4.23465e-06 0.00015006
-0.000719356 4.53306e-06 0.000103122
-7.71103e-06 2.50729e-05 -4.88263e-05
-0.000728633 5.96576e-06 8.02844e-05
1.18316e-06 -3.35085e-06 3.90445e-06
-0.000612982 8.52395e-05 0.000266853
1.94898e-06 -4.98765e-06 6.74227e-06
-5.80888e-06 1.42323e-05 -2.19363e-05
-1.43827e-05 3.47053e-05 -6.02506e-05
-0.000655668 5.15144e-05 0.000232996
-1.05167e-05 2.15928e-05 -2.02758e-05
-0.000685928 3.93429e-05 0.00017529
-0.000704396 3.19889e-05 0.0001274
-0.000718197 2.92115e-05 9.3712e-05
-3.16392e-06 6.90231e-06 -7.95234e-06
-3.89142e-05 8.53264e-05 -7.85897e-05
-1.1658e-05 2.45752e-05 -3.2223e-05
-2.24003e-05 4.78434e-05 -6.97582e-05
-0.000705216 5.28437e-05 0.000101411
-0.000658224 7.41498e-05 0.000198105
-0.000619912 9.06708e-05 0.000224208
-0.00068622 5.74123e-05 0.000145016
-3.09429e-05 6.51981e-05 -7.64977e-05
-3.86821e-05 8.84756e-05 -0.000111004
-1.86538e-05 3.81849e-05 -4.0383e-05
-0.000681945 6.56062e-05 0.000112091
-0.000659237 7.21404e-05 0.00016291
-3.28227e-05 0.000120013 -0.00013521
-0.000734764 -1.71545e-05 6.73602e-05
-2.88067e-05 6.60918e-05 -0.000103126
-0.000694334 6.29475e-05 7.89218e-05
-4.14003e-05 0.000129403 -0.000141038
-1.93323e-05 4.96415e-05 -9.23499e-05
-4.73014e-05 0.000128615 -0.000133962
-1.11538e-05 3.7966e-05 -7.95682e-05
-0.0007175 5.29199e-05 6.77918e-05
-5.28082e-06 3.36286e-05 -7.9395e-05
-4.71391e-06 3.28449e-05 -8.10087e-05