# vtk DataFile Version 3.0
vtk output
ASCII
DATASET POLYDATA
POINTS 12524 float
0.0127877 0.518687 -0.0158515
0.0873881 0.681886 -0.100221
0.106569 0.681453 -0.105251
0.117679 0.673368 -0.099085
0.136864 0.673423 -0.101967
0.156008 0.673722 -0.10397
0.125874 0.681073 -0.109155
0.145117 0.680677 -0.111966
0.164364 0.680759 -0.114001
0.114638 0.689601 -0.115662
0.133986 0.688934 -0.119419
0.153355 0.688488 -0.122031
0.0139796 0.537423 -0.0224625
0.0227038 0.530282 -0.0145793
0.0151366 0.55625 -0.0294307
0.0242113 0.54895 -0.0222326
0.0327497 0.542049 -0.0138026
0.0431798 0.553627 -0.0143224
0.0256227 0.567659 -0.0300323
0.0345217 0.560604 -0.0223027
0.0451852 0.572014 -0.0239058
0.0537372 0.565233 -0.0153139
0.0162334 0.575208 -0.0365608
0.0172117 0.594361 -0.0438211
0.0269102 0.586397 -0.0380475
0.0361925 0.579185 -0.0311957
0.0647105 0.576554 -0.0180824
0.0559318 0.583388 -0.0260755
0.0756009 0.587833 -0.0216738
0.0841174 0.581168 -0.0132057
0.0376464 0.597769 -0.0403446
0.0470347 0.59023 -0.0338761
0.0669316 0.594205 -0.0299239
0.0578223 0.601398 -0.0373064
0.0866642 0.598333 -0.0267466
0.0777818 0.605106 -0.0346839
0.028013 0.605289 -0.0463406
0.0951107 0.592227 -0.0179252
0.114745 0.595826 -0.0153531
0.106207 0.602308 -0.0241673
0.134302 0.598783 -0.0136501
0.153683 0.601336 -0.0125367
0.125811 0.605316 -0.0224489
0.145174 0.607974 -0.0214654
0.018058 0.613633 -0.051064
0.0388091 0.616361 -0.0498135
0.0485248 0.608515 -0.0442923
0.0592587 0.619293 -0.0490839
0.0686988 0.611722 -0.0423829
0.0793229 0.622088 -0.0483252
0.0187275 0.633182 -0.0581095
0.028845 0.624381 -0.054741
0.0395657 0.635206 -0.0594298
0.0495413 0.626865 -0.0549535
0.0698378 0.629261 -0.0552311
0.0600631 0.637266 -0.06092
0.0192143 0.65302 -0.0649709
0.01952 0.673124 -0.0713683
0.0293818 0.643745 -0.0629878
0.0500055 0.645429 -0.0656451
0.080139 0.639183 -0.0623381
0.0702196 0.646927 -0.0682612
0.0295863 0.663393 -0.0710008
0.03984 0.654297 -0.0689174
0.0498196 0.664184 -0.0762961
0.0601188 0.655484 -0.0728894
0.0697018 0.664768 -0.0812671
0.0799978 0.656427 -0.0764431
0.0293875 0.683286 -0.0787496
0.0396125 0.673727 -0.0781735
0.0593723 0.673983 -0.0846329
0.0788293 0.673883 -0.0904253
0.0488786 0.683248 -0.0867083
0.0681546 0.682855 -0.0940441
0.166438 0.666618 -0.0953909
0.0886403 0.615102 -0.0409579
0.0975488 0.608749 -0.0327222
0.16441 0.610044 -0.0209563
0.108258 0.618549 -0.0397688
0.117131 0.612065 -0.0312329
0.136569 0.614559 -0.030495
0.155787 0.616824 -0.0300997
0.127793 0.621003 -0.0392613
0.147048 0.623232 -0.0389859
0.0898301 0.63175 -0.055624
0.0901165 0.648393 -0.0705652
0.0893465 0.665223 -0.0855154
0.0992067 0.625033 -0.0480066
0.16612 0.625041 -0.0390675
0.109515 0.634376 -0.0559503
0.118766 0.627805 -0.0477512
0.128948 0.636332 -0.0565431
0.138119 0.629735 -0.0479598
0.148116 0.637976 -0.0570114
0.15722 0.631612 -0.0482197
0.167105 0.639489 -0.0576099
0.0999761 0.641162 -0.0636754
0.109776 0.650093 -0.0724532
0.119507 0.64326 -0.0646763
0.129156 0.651349 -0.0741006
0.138791 0.644542 -0.0658098
0.148276 0.652371 -0.0753664
0.157823 0.645955 -0.0666878
0.167249 0.653568 -0.0763649
0.0982926 0.673736 -0.0951779
0.0996728 0.657427 -0.0795014
0.108802 0.665712 -0.0890829
0.147339 0.666339 -0.0939615
0.119146 0.658617 -0.0818357
0.128159 0.666119 -0.0918149
0.138404 0.659127 -0.0838969
0.157438 0.660039 -0.0853003
0.172693 0.68833 -0.124154
0.175155 0.674093 -0.105599
0.18549 0.666893 -0.0968327
0.204341 0.666701 -0.0979935
0.223183 0.666746 -0.0990059
0.242091 0.666059 -0.0998288
0.183622 0.68066 -0.11592
0.194185 0.673964 -0.107003
0.213167 0.673646 -0.108093
0.232122 0.673239 -0.109026
0.251126 0.672327 -0.109855
0.202774 0.680106 -0.117055
0.221873 0.67975 -0.118053
0.24096 0.678934 -0.119069
0.192105 0.687873 -0.125986
0.211422 0.687153 -0.127128
0.230666 0.686425 -0.128
0.249832 0.685276 -0.129014
0.260019 0.677685 -0.119834
0.260981 0.665046 -0.100499
0.280001 0.664346 -0.101371
0.299051 0.663828 -0.102379
0.318055 0.663147 -0.103206
0.27011 0.671213 -0.110633
0.28919 0.670436 -0.111533
0.308308 0.66979 -0.112622
0.327322 0.668918 -0.113357
0.298297 0.675723 -0.121548
0.317428 0.674911 -0.122554
0.279147 0.676669 -0.120645
0.269002 0.683911 -0.129857
0.288241 0.682874 -0.130751
0.326612 0.680906 -0.132636
0.307483 0.681904 -0.131786
0.297305 0.68848 -0.140693
0.316575 0.687423 -0.141756
0.173024 0.603358 -0.012016
0.192447 0.605017 -0.0123022
0.21181 0.606165 -0.0128064
0.230973 0.606906 -0.0133707
0.250137 0.607411 -0.0139041
0.269404 0.607756 -0.0146453
0.288659 0.608207 -0.0153597
0.307838 0.60857 -0.015995
0.32704 0.608531 -0.0165935
0.174957 0.618737 -0.0300424
0.183756 0.611906 -0.0209646
0.194079 0.620155 -0.0305832
0.202963 0.61313 -0.0216247
0.222078 0.614064 -0.0222025
0.241131 0.614598 -0.0228315
0.213182 0.621118 -0.0312602
0.232163 0.621648 -0.0319578
0.251168 0.621931 -0.0326125
0.176241 0.633193 -0.0486732
0.176791 0.647154 -0.0676128
0.176461 0.660902 -0.0866638
0.185239 0.626749 -0.039517
0.195214 0.634408 -0.0493061
0.204246 0.627696 -0.040265
0.223178 0.628456 -0.0409535
0.242109 0.628689 -0.0417302
0.214128 0.635126 -0.0502063
0.232986 0.635479 -0.0509794
0.251892 0.635537 -0.0517653
0.186114 0.640789 -0.0584845
0.186249 0.654383 -0.0776238
0.195687 0.648047 -0.0684035
0.204974 0.641486 -0.059335
0.22381 0.642024 -0.0601144
0.242689 0.642034 -0.0610095
0.214511 0.648481 -0.069493
0.233309 0.648646 -0.0702933
0.252181 0.648435 -0.0711775
0.195402 0.661407 -0.0877764
0.205048 0.654598 -0.0786365
0.223825 0.654771 -0.079555
0.242697 0.654542 -0.0804979
0.214271 0.661416 -0.0888588
0.233118 0.661401 -0.0896951
0.252001 0.660923 -0.0906116
0.260282 0.614824 -0.0235227
0.270275 0.62205 -0.0334152
0.279491 0.615148 -0.0242718
0.298596 0.615613 -0.0250389
0.317726 0.615584 -0.0257647
0.289382 0.622286 -0.0342215
0.308462 0.622519 -0.0349661
0.327567 0.622327 -0.0356551
0.261094 0.628701 -0.0424841
0.270856 0.635367 -0.0525794
0.280157 0.628787 -0.0433112
0.29917 0.629043 -0.0441581
0.318215 0.628849 -0.0449502
0.289865 0.635357 -0.053417
0.30889 0.635393 -0.0542375
0.327919 0.635027 -0.054993
0.327829 0.657637 -0.0939628
0.261554 0.641739 -0.0617858
0.261594 0.65416 -0.0811834
0.271071 0.648015 -0.0719757
0.280529 0.641536 -0.0626426
0.299491 0.641574 -0.0634924
0.318485 0.641185 -0.0643524
0.290051 0.647749 -0.0728321
0.309065 0.647502 -0.0737
0.328041 0.646962 -0.0744983
0.299538 0.653423 -0.0828601
0.318517 0.652837 -0.083699
0.280559 0.653699 -0.0820749
0.308921 0.658965 -0.0932115
0.270911 0.660214 -0.0914547
0.289916 0.659657 -0.0922978
0.336568 0.674065 -0.123279
0.335818 0.686544 -0.142629
0.337113 0.662378 -0.103865
0.356342 0.661861 -0.104638
0.375394 0.661483 -0.105276
0.394492 0.661173 -0.105709
0.413618 0.660883 -0.106103
0.366072 0.65664 -0.0955373
0.385071 0.656277 -0.0959291
0.404157 0.656043 -0.0963281
0.346548 0.668239 -0.114114
0.355878 0.673362 -0.12398
0.365708 0.66764 -0.114721
0.384808 0.667219 -0.115314
0.403965 0.666909 -0.115773
0.375017 0.672702 -0.124598
0.394215 0.672303 -0.125122
0.413409 0.67193 -0.125542
0.345935 0.680161 -0.133456
0.365222 0.679337 -0.133991
0.38442 0.678734 -0.134635
0.403665 0.67836 -0.13515
0.374503 0.684794 -0.143831
0.393822 0.684284 -0.144435
0.413106 0.683854 -0.144893
0.355233 0.685749 -0.143385
0.423403 0.65596 -0.0967929
0.432924 0.66084 -0.106582
0.452114 0.660898 -0.106742
0.471273 0.660847 -0.106832
0.490434 0.660768 -0.106904
0.442623 0.656099 -0.0971503
0.461746 0.655975 -0.0971905
0.480868 0.655904 -0.0973087
0.499995 0.655891 -0.0975102
0.423238 0.666618 -0.11614
0.442481 0.666708 -0.11653
0.461668 0.666663 -0.116648
0.480853 0.666587 -0.116738
0.50004 0.666483 -0.116806
0.432727 0.671659 -0.125881
0.451985 0.671752 -0.12615
0.471204 0.671735 -0.126276
0.490423 0.67167 -0.126328
0.422984 0.677967 -0.135483
0.442277 0.677886 -0.13584
0.461539 0.6779 -0.136057
0.480799 0.677866 -0.136173
0.432486 0.683401 -0.145167
0.451794 0.683519 -0.145513
0.471091 0.683533 -0.145688
0.490387 0.683508 -0.145756
0.500051 0.677784 -0.136194
0.346417 0.608732 -0.0173068
0.36568 0.609262 -0.0179787
0.336941 0.615546 -0.0264128
0.384779 0.609644 -0.0183807
0.403963 0.609955 -0.0187595
0.346835 0.622423 -0.0364938
0.356303 0.615878 -0.027231
0.375371 0.616337 -0.0276825
0.39452 0.616552 -0.0280916
0.413692 0.616835 -0.0284724
0.365992 0.622729 -0.0371281
0.385054 0.622963 -0.0375185
0.404214 0.623191 -0.0379211
0.337368 0.628706 -0.0457103
0.337577 0.640917 -0.0652061
0.337563 0.652396 -0.0845419
0.346998 0.657008 -0.0947674
0.347096 0.634944 -0.0558968
0.356576 0.628836 -0.0465366
0.375623 0.629077 -0.0469936
0.394742 0.629167 -0.0474014
0.413895 0.629411 -0.0478608
0.366197 0.635036 -0.0565233
0.385233 0.635061 -0.0569005
0.40438 0.63521 -0.0573433
0.347181 0.646705 -0.0754435
0.35672 0.640807 -0.0660184
0.375762 0.640791 -0.0664543
0.394863 0.640759 -0.0668659
0.414007 0.640968 -0.0674124
0.356697 0.652092 -0.0853994
0.36627 0.646588 -0.0760466
0.385297 0.646399 -0.0763996
0.40444 0.646461 -0.0768811
0.375764 0.651811 -0.0858222
0.394856 0.65164 -0.0862158
0.414001 0.651797 -0.0867965
0.42318 0.61034 -0.0190172
0.442385 0.610555 -0.0191774
0.461545 0.610444 -0.0192823
0.480708 0.610368 -0.0193509
0.499875 0.610331 -0.0193838
0.423369 0.623547 -0.0382834
0.4329 0.61732 -0.0286823
0.45205 0.617173 -0.0288184
0.471199 0.617091 -0.028919
0.49035 0.617082 -0.0289949
0.442539 0.623713 -0.0384546
0.461679 0.623574 -0.0385397
0.480822 0.623535 -0.0386522
0.49997 0.623602 -0.0387937
0.423483 0.635492 -0.0578006
0.433032 0.629792 -0.0481365
0.45217 0.629624 -0.0482207
0.471301 0.62955 -0.0483389
0.490436 0.629629 -0.0485126
0.442646 0.635604 -0.0579768
0.461774 0.63544 -0.0580287
0.480904 0.635448 -0.0581915
0.500039 0.635634 -0.0584672
0.42352 0.646704 -0.0774212
0.433112 0.641248 -0.0677374
0.452247 0.641037 -0.0677603
0.471369 0.640959 -0.0678791
0.490494 0.641112 -0.0681426
0.442705 0.646731 -0.0775906
0.461825 0.646516 -0.0776001
0.480947 0.646551 -0.0778099
[...]
POINT_DATA 12524
VECTORS alpha float
-0.000116367 -0.00178341 0.00064715
-0.000678743 1.58703e-05 0.000191585
-0.000704024 1.06233e-05 0.000156187
2.95003e-06 -2.02711e-05 2.13363e-05
-7.1404e-07 4.64478e-06 -5.43722e-06
-4.53555e-06 3.02932e-05 -3.77847e-05
-0.000719709 3.54968e-06 0.000115815
-0.000730426 2.91115e-06 8.35081e-05
-0.000740083 3.28246e-07 6.54733e-05
1.82838e-06 -8.50287e-06 8.293e-06
-3.09714e-06 1.40925e-05 -1.53325e-05
-8.5612e-06 4.07639e-05 -4.76015e-05
-9.38285e-05 -0.00148534 0.000551922
-0.000291402 -7.00278e-05 -0.000151929
-7.00473e-05 -0.0011742 0.000443881
-0.000321648 -7.18631e-05 -0.000138395
-8.89304e-05 -0.000911622 0.000416973
-0.0004967 -0.000123224 -0.000206167
-0.000348221 -6.99953e-05 -0.000116343
-6.88578e-05 -0.000733979 0.000351539
-0.000538319 -0.000120912 -0.000171221
-4.95059e-05 -0.000394926 0.000229509
-4.62369e-05 -0.000846474 0.000321113
-2.40295e-05 -0.00050516 0.000189976
-0.000369762 -6.40336e-05 -8.56379e-05
-4.65399e-05 -0.000549935 0.000272839
-0.000621348 -0.000142345 -0.000173033
-3.57741e-05 -0.00031346 0.000193496
-2.74647e-05 -0.000199864 0.000146666
-0.000660417 -0.000145514 -0.000149078
-2.51356e-05 -0.000359473 0.00018229
-0.000572175 -0.000111056 -0.000122439
-0.000658134 -0.000130731 -0.000123669
-2.13926e-05 -0.00022971 0.000148602
-0.000695667 -0.000135772 -0.000103551
-1.77633e-05 -0.000159986 0.000124717
-0.000384781 -5.49989e-05 -4.60739e-05
-1.92077e-05 -0.000126343 0.000105487
-1.17225e-05 -7.4584e-05 6.9155e-05
-0.000710716 -0.000128201 -7.78324e-05
-6.01101e-06 -3.9607e-05 3.98272e-05
-2.57439e-06 -1.82198e-05 1.92282e-05
-0.000716574 -0.000109267 -5.16878e-05
-0.00072337 -9.05381e-05 -2.85204e-05
-5.75703e-06 -0.000150015 5.53328e-05
-8.21839e-06 -0.000163227 8.36996e-05
-0.000595299 -9.53709e-05 -6.3436e-05
-9.10087e-06 -0.00014427 9.60633e-05
-0.00068334 -0.000112229 -6.15802e-05
-8.6826e-06 -0.000119677 9.74515e-05
6.14015e-06 0.000215425 -7.64153e-05
-0.000390877 -4.37894e-05 -9.96153e-07
1.01916e-06 3.79982e-05 -1.93131e-05
-0.000605028 -7.41972e-05 2.5365e-06
-0.000694274 -8.7384e-05 6.9722e-06
-1.41555e-06 -5.68357e-05 3.80922e-05
1.09156e-05 0.000588472 -0.000196831
8.57728e-06 0.000964732 -0.000296958
-0.000387094 -3.08225e-05 4.68278e-05
-0.000600021 -4.96268e-05 7.29379e-05
-1.76734e-06 -7.91522e-05 6.56244e-05
-0.000689784 -5.74853e-05 7.95243e-05
-0.000372428 -1.72625e-05 9.494e-05
3.61326e-08 0.000244384 -0.000119583
-0.000578456 -2.35142e-05 0.000143622
-6.02785e-07 3.29098e-05 -2.16348e-05
-0.000668319 -2.53234e-05 0.000151617
1.32827e-06 -3.75903e-05 3.0798e-05
-0.00034671 -4.64911e-06 0.000140862
-1.2018e-05 0.000455185 -0.000209282
-7.91279e-06 0.000125643 -7.85604e-05
-5.42668e-07 5.72168e-06 -4.47768e-06
-0.000540536 8.53392e-07 0.000211606
-0.000630269 5.62594e-06 0.000221057
-0.000751452 -1.81005e-05 5.51884e-05
-0.000720018 -0.000116736 -4.85387e-05
-1.30946e-05 -0.000106823 9.63521e-05
-0.000732709 -7.03151e-05 -1.1674e-05
-0.000732951 -0.000113055 -3.22932e-05
-8.05288e-06 -6.31349e-05 6.41393e-05
-3.7026e-06 -3.00833e-05 3.32026e-05
-8.66913e-07 -7.58947e-06 8.80048e-06
-0.000735989 -9.88856e-05 -1.65387e-05
-0.000740516 -8.30987e-05 -2.74706e-06
-0.000731237 -9.1541e-05 1.1468e-05
-0.00072864 -6.03865e-05 7.43231e-05
-0.000711389 -2.61008e-05 0.000136839
-6.8288e-06 -8.74757e-05 8.31081e-05
-0.000748632 -6.55986e-05 8.0362e-06
-0.000743352 -9.09881e-05 1.68465e-05
-4.24343e-06 -5.20859e-05 5.64366e-05
-0.000745908 -8.15189e-05 2.05327e-05
-1.62413e-06 -2.10791e-05 2.49443e-05
-0.000749346 -6.87851e-05 2.33533e-05
1.49599e-07 2.1546e-06 -2.68062e-06
-0.000757106 -5.60893e-05 2.68367e-05
-1.37367e-06 -6.81782e-05 6.62966e-05
-0.000742286 -6.31214e-05 6.69239e-05
-7.72316e-07 -4.13819e-05 4.61991e-05
-0.000746242 -5.96662e-05 5.58596e-05
-1.74326e-07 -1.24304e-05 1.53089e-05
-0.000750104 -5.09596e-05 4.79125e-05
1.12532e-07 1.14082e-05 -1.47619e-05
-0.000757633 -4.36958e-05 4.33705e-05
3.38635e-06 -2.85952e-05 2.62794e-05
2.25523e-06 -4.87079e-05 4.70044e-05
-0.00073028 -2.86386e-05 0.000116127
-0.000744131 -2.7283e-05 7.33329e-05
1.67897e-06 -3.07607e-05 3.43074e-05
-0.000738355 -3.18329e-05 9.21733e-05
2.44585e-07 -4.03824e-06 4.99664e-06
-1.22593e-06 2.04099e-05 -2.66248e-05
-1.19252e-05 6.11637e-05 -7.45092e-05
-6.70632e-06 4.89979e-05 -6.37306e-05
-0.00076292 -1.09863e-05 4.4714e-05
-0.000775834 3.58582e-06 4.17057e-05
-0.000790918 1.35657e-05 4.17705e-05
-0.000805784 3.04192e-05 3.0485e-05
-0.00075162 -3.24051e-06 4.8224e-05
-6.79573e-06 5.78749e-05 -7.75049e-05
-5.86694e-06 5.80906e-05 -7.9749e-05
-4.73894e-06 5.25e-05 -7.40997e-05
-3.35233e-06 4.45101e-05 -6.45032e-05
-0.000763546 1.28794e-05 3.87716e-05
-0.000776196 2.50251e-05 3.85923e-05
-0.000789101 3.37789e-05 3.77298e-05
-1.19944e-05 7.14569e-05 -8.96724e-05
-1.00998e-05 7.17003e-05 -9.26118e-05
-7.94943e-06 6.53193e-05 -8.67281e-05
-5.94539e-06 5.60311e-05 -7.61735e-05
-0.000802142 4.8493e-05 3.14722e-05
-0.000821276 4.19618e-05 2.86626e-05
-0.000835 3.52391e-05 4.18133e-05
-0.00084729 2.51805e-05 4.60908e-05
-0.000855137 3.12563e-05 2.91925e-05
-2.4378e-06 3.61457e-05 -5.37109e-05
-1.8387e-06 2.95164e-05 -4.45742e-05
-1.38734e-06 2.45382e-05 -3.7779e-05
-9.84797e-07 2.07122e-05 -3.2783e-05
-0.000824975 3.59623e-05 4.33934e-05
-0.000832922 2.91021e-05 3.4639e-05
-0.000814137 4.88223e-05 3.46207e-05
-4.23008e-06 4.59704e-05 -6.41297e-05
-3.0675e-06 3.78215e-05 -5.35439e-05
-1.69841e-06 2.6501e-05 -3.91526e-05
-2.35802e-06 3.14903e-05 -4.53381e-05
-0.000794313 4.70518e-05 3.78239e-05
-0.000801483 3.13323e-05 3.99363e-05
-9.02819e-07 -7.02962e-06 7.6959e-06
-3.36801e-07 -3.06864e-06 3.42165e-06
-3.04598e-07 -3.29816e-06 3.74043e-06
-4.28217e-07 -5.14154e-06 5.99117e-06
-5.16917e-07 -6.81806e-06 8.14184e-06
-4.68012e-07 -7.48445e-06 9.08709e-06
-3.65902e-07 -7.04329e-06 8.6251e-06
-2.71798e-07 -5.71452e-06 7.11266e-06
-1.74474e-07 -3.98524e-06 5.0486e-06
5.56627e-07 5.40392e-06 -6.5182e-06
-0.000745384 -4.57692e-05 7.04025e-06
9.57652e-07 1.06758e-05 -1.31279e-05
-0.000761264 -3.41181e-05 1.83862e-05
-0.000778678 -2.6328e-05 2.6431e-05
-0.00079655 -1.15936e-05 2.92583e-05
8.12585e-07 1.07471e-05 -1.34418e-05
5.55864e-07 8.14919e-06 -1.0469e-05
3.15043e-07 5.05462e-06 -6.66785e-06
1.04297e-06 1.65346e-05 -2.14832e-05
2.32544e-07 2.70087e-05 -3.65273e-05
-2.03821e-06 3.73035e-05 -5.07499e-05
-0.000760906 -4.45373e-05 2.04771e-05
1.27267e-06 2.28582e-05 -3.01814e-05
-0.00077649 -2.7819e-05 2.65753e-05
-0.00079428 -1.77648e-05 3.34798e-05
-0.000812424 -4.03763e-06 3.4457e-05
1.0996e-06 2.3052e-05 -3.10334e-05
8.57486e-07 1.97699e-05 -2.72965e-05
6.11351e-07 1.53439e-05 -2.18206e-05
-0.000768959 -3.86378e-05 3.26234e-05
-0.000769101 -3.04295e-05 4.35464e-05
3.36473e-07 3.42413e-05 -4.70951e-05
-0.00078395 -2.05125e-05 3.50422e-05
-0.000801609 -7.44249e-06 3.8084e-05
-0.00081956 4.47941e-06 3.77481e-05
3.22521e-07 3.44187e-05 -4.83958e-05
2.88038e-07 3.05203e-05 -4.3916e-05
2.28196e-07 2.48162e-05 -3.68263e-05
-1.98006e-06 4.53464e-05 -6.301e-05
-0.000783388 -1.179e-05 4.16631e-05
-0.000800493 1.88517e-06 3.97349e-05
-0.000817297 1.03492e-05 3.79067e-05
-1.63901e-06 4.55e-05 -6.47206e-05
-1.25699e-06 4.09718e-05 -5.96351e-05
-9.32819e-07 3.41104e-05 -5.10778e-05
-0.000811936 -6.75187e-06 3.30824e-05
1.39157e-07 2.73717e-06 -3.68321e-06
-0.000824949 -1.11743e-05 3.71467e-05
-0.000837394 -9.22947e-06 3.66097e-05
-0.000846632 4.37731e-06 2.97809e-05
6.64746e-08 1.60239e-06 -2.17724e-06
5.55589e-08 1.46133e-06 -2.02281e-06
6.64761e-08 1.90644e-06 -2.69387e-06
-0.000828335 2.54554e-06 3.76422e-05
3.67471e-07 1.14955e-05 -1.67384e-05
-0.000842191 -7.10366e-07 4.20277e-05
-0.000855417 5.91101e-07 4.11941e-05
-0.000864566 1.12445e-05 3.41518e-05
2.23005e-07 8.97355e-06 -1.31893e-05
1.72047e-07 7.53289e-06 -1.13003e-05
1.42373e-07 6.84213e-06 -1.05052e-05
-3.70409e-07 1.60501e-05 -2.57208e-05
-0.000835592 1.32878e-05 4.01861e-05
-0.000832135 2.29861e-05 4.21316e-05
1.36338e-07 1.94893e-05 -2.9711e-05
-0.000849911 1.1575e-05 4.4226e-05
-0.000863722 1.20206e-05 4.31188e-05
-0.000872942 1.89117e-05 3.67041e-05
4.70939e-08 1.56715e-05 -2.41446e-05
3.99901e-08 1.30624e-05 -2.05216e-05
2.67385e-08 1.13242e-05 -1.82363e-05
-0.000860122 2.52308e-05 4.24039e-05
-0.000869092 2.50368e-05 3.53947e-05
-0.000846497 2.29724e-05 4.67289e-05
-4.20465e-07 1.86537e-05 -2.9379e-05
-6.04006e-07 2.72851e-05 -4.21429e-05
-4.97904e-07 2.21956e-05 -3.46689e-05
-0.000840016 3.11067e-05 3.12844e-05
-0.000807005 3.01146e-05 3.6041e-05
-0.000863254 2.89494e-05 3.0554e-05
-0.00087134 1.56157e-05 3.95839e-05
-0.000877983 8.63467e-06 2.4004e-05
-0.000880544 1.29374e-05 1.89752e-05
-0.000884034 1.41212e-05 1.73595e-05
-2.79525e-07 1.27784e-05 -2.08653e-05
-1.4062e-07 1.11839e-05 -1.86405e-05
-8.96115e-08 9.53554e-06 -1.61037e-05
-7.7738e-07 1.81702e-05 -2.89811e-05
-0.000846949 2.84297e-05 3.30193e-05
-5.7648e-07 1.60395e-05 -2.58268e-05
-3.39208e-07 1.39092e-05 -2.27985e-05
-2.2871e-07 1.17577e-05 -1.95242e-05
-0.000853215 1.00935e-05 2.90025e-05
-0.000855218 1.60174e-05 2.08655e-05
-0.000858407 1.74469e-05 1.66269e-05
-1.25674e-06 2.30815e-05 -3.43554e-05
-8.58403e-07 2.01933e-05 -3.03456e-05
-5.56465e-07 1.74317e-05 -2.65886e-05
-3.84254e-07 1.4663e-05 -2.26349e-05
-0.000817676 1.0631e-05 3.25826e-05
-0.000819009 1.77226e-05 2.24604e-05
-0.000821842 1.88264e-05 1.64713e-05
-0.000812357 3.66587e-05 2.94515e-05
-9.56205e-08 7.84468e-06 -1.32291e-05
-0.000888875 -1.81726e-05 2.9742e-05
-0.000890323 1.74929e-06 4.6368e-06
-0.000891669 3.07017e-06 3.71085e-06
-0.000892505 4.31212e-06 3.04161e-06
-4.3256e-08 5.92142e-06 -1.01188e-05
-1.84475e-08 3.94281e-06 -6.80109e-06
-3.87694e-09 1.98953e-06 -3.40778e-06
-1.83506e-12 -2.90634e-09 4.86332e-09
-1.81248e-07 9.61527e-06 -1.59583e-05
-1.01538e-07 7.24707e-06 -1.21544e-05
-4.71546e-08 4.81767e-06 -8.15187e-06
-1.29885e-08 2.42823e-06 -4.07971e-06
5.65063e-12 -5.2408e-09 8.60485e-09
-0.00086274 -6.88654e-06 2.00924e-05
-0.000864064 -2.70381e-07 7.38211e-06
-0.000865251 1.87018e-06 3.9488e-06
-0.00086593 4.00894e-06 7.7501e-07
-2.79178e-07 1.1937e-05 -1.84404e-05
-1.66076e-07 8.98121e-06 -1.40101e-05
-7.98886e-08 5.97238e-06 -9.38082e-06
-2.40457e-08 3.00635e-06 -4.68776e-06
-0.000825392 5.31414e-06 1.02154e-05
-0.000826546 -1.45852e-06 9.85127e-06
-0.000827548 2.29892e-07 5.16882e-06
-0.00082806 1.88771e-06 7.1467e-07
2.84709e-11 -1.06444e-08 1.6245e-08
-7.36163e-08 -2.34047e-06 2.98951e-06
-2.22751e-08 -1.00435e-06 1.29278e-06
-0.000854783 4.70596e-07 2.59381e-05
-2.06773e-09 -9.40667e-08 1.23122e-07
8.27443e-09 4.03377e-07 -5.33806e-07
6.02462e-08 2.53834e-06 -3.61749e-06
-0.000860354 -1.7826e-05 2.53667e-05
-0.000867161 -8.81442e-06 2.00898e-05
-0.000871747 -1.12243e-05 1.80135e-05
-0.000875938 -1.37597e-05 1.65318e-05
5.10561e-08 3.03155e-06 -4.35641e-06
5.72175e-08 3.20731e-06 -4.69254e-06
5.05135e-08 3.0708e-06 -4.54521e-06
-0.000873273 4.11403e-06 3.25037e-05
-0.000882134 8.67904e-06 3.97944e-05
-0.000878173 1.42301e-05 4.13108e-05
-3.52395e-07 1.42388e-05 -2.3068e-05
8.5973e-08 6.59512e-06 -1.02391e-05
-0.000880356 -8.08519e-06 2.9572e-05
-0.000887386 -3.35357e-06 1.96946e-05
-0.000891642 -7.94484e-06 2.03524e-05
-0.000895791 -1.40854e-05 2.23579e-05
5.42758e-08 6.38124e-06 -9.99303e-06
6.5248e-08 5.93258e-06 -9.48362e-06
5.15874e-08 5.27328e-06 -8.53677e-06
-1.20616e-08 1.02799e-05 -1.67574e-05
-0.000890284 2.74567e-06 3.26965e-05
-0.000897509 1.61863e-06 1.87912e-05
-0.000901337 -4.70248e-06 2.27559e-05
-0.000905352 -1.44641e-05 2.86921e-05
-0.000886908 1.29175e-05 3.76541e-05
-2.18892e-08 9.43707e-06 -1.55042e-05
1.626e-08 8.414e-06 -1.41317e-05
7.97738e-09 7.27151e-06 -1.23825e-05
-0.000894143 9.34808e-06 1.72776e-05
-0.000897397 -7.81365e-07 2.29566e-05
-0.000901288 -1.35849e-05 3.1499e-05
9.09221e-09 5.84971e-07 -7.77136e-07
7.21315e-09 5.54943e-07 -7.42038e-07
4.80647e-09 4.08384e-07 -5.48681e-07
2.21999e-09 2.12438e-07 -2.84126e-07
-2.23157e-11 -2.45533e-09 3.2384e-09
3.18953e-08 2.69187e-06 -4.00048e-06
-0.000878292 -9.45076e-06 1.33111e-05
-0.000880387 5.57097e-06 5.17559e-06
-0.00088203 2.26609e-06 4.03164e-06
-0.000883047 -1.33751e-06 2.90927e-06
2.31354e-08 2.11643e-06 -3.17195e-06
1.41539e-08 1.43839e-06 -2.16976e-06
6.29744e-09 7.28976e-07 -1.09407e-06
-1.08205e-11 -1.46888e-09 2.16817e-09
2.85111e-08 4.437e-06 -7.21764e-06
-0.000898216 -5.05205e-06 1.30339e-05
-0.000900158 7.20637e-06 4.24152e-06
-0.0009018 3.66337e-08 6.8393e-06
-0.00090282 -7.42489e-06 9.5021e-06
2.65611e-08 3.41402e-06 -5.59859e-06
1.56722e-08 2.29276e-06 -3.79075e-06
6.6993e-09 1.15786e-06 -1.90395e-06
-1.31517e-11 -2.83109e-09 4.56744e-09
-7.15865e-10 6.02069e-06 -1.03025e-05
-0.000907745 -5.80886e-07 1.08196e-05
-0.000909501 9.3165e-06 2.20263e-06
-0.0009111 -1.64766e-06 9.066e-06
-0.000912103 -1.2916e-05 1.60178e-05
1.64369e-08 4.58605e-06 -7.91627e-06
8.93273e-09 3.06221e-06 -5.33443e-06
3.39142e-09 1.54552e-06 -2.6752e-06
-3.62806e-12 -2.6265e-09 4.44797e-09
-0.000903478 4.98068e-06 1.01704e-05
-0.000905073 1.12324e-05 -2.58639e-07
-0.000906632 -2.14195e-06 9.54287e-06
-0.000907626 -1.58008e-05 1.94701e-05
-0.000633439 3.78294e-05 8.09673e-05
-0.00057402 4.04476e-05 8.21968e-05
-3.41406e-05 0.000135058 -8.36948e-05
-3.69427e-05 0.000156821 -7.45885e-05
-3.17308e-05 0.000120435 -5.26017e-05
-0.000559888 4.74867e-05 0.000122286
-0.000539048 4.85317e-05 0.000169316
-0.000496703 3.71617e-05 8.35892e-05
-0.000485899 4.05696e-05 0.000121249
-0.000464413 4.05915e-05 0.000166456
-3.62159e-05 0.000202373 -7.36202e-05
-3.65271e-05 0.000177243 -6.00296e-05
-3.17658e-05 0.00013769 -4.16805e-05
-2.47212e-05 0.000100236 -2.62394e-05
-0.000406006 2.71937e-05 7.8227e-05
-0.000397463 2.78889e-05 0.000111797
-0.000377425 2.68719e-05 0.000151681
-3.15707e-05 0.000223889 -4.95125e-05
-3.20545e-05 0.00019555 -3.92552e-05
-2.79422e-05 0.000153275 -2.58646e-05
-2.28711e-05 0.000115469 -1.5695e-05
-0.000300365 1.57501e-05 6.45342e-05
-0.00029477 1.48973e-05 9.21819e-05
-0.000278495 1.24062e-05 0.000122816
-0.000244431 9.89614e-06 0.000154769
-0.000336877 2.673e-05 0.000194837
-2.40052e-05 0.000116616 -1.12539e-05
-2.37196e-05 8.38095e-05 -3.24628e-05
-0.000421469 4.42407e-05 0.000217958
-2.89078e-05 0.000101937 -5.93107e-05
-2.45174e-05 9.6201e-05 -2.08527e-05
-0.000196649 6.49995e-06 0.000181753
-0.000279138 2.37771e-05 0.000234491
-0.000619024 5.0095e-05 0.000117661
-0.000497527 5.55389e-05 0.000226542
-2.17139e-05 7.57654e-05 -2.51739e-05
-2.43651e-05 0.000237189 -2.15221e-05
-2.48849e-05 0.000206201 -1.48386e-05
-2.17769e-05 0.000163192 -7.58489e-06
-1.84532e-05 0.000127466 -2.76573e-06
-2.04532e-05 0.000133903 1.42874e-06
-0.000184156 5.29044e-06 4.32623e-05
-0.000182305 3.72802e-06 6.17124e-05
-0.000171946 9.3783e-07 8.13445e-05
-0.000148529 -1.92693e-06 0.000100617
-0.000114644 -5.17939e-06 0.000114148
-1.40796e-05 0.000242287 1.05795e-05
-1.47294e-05 0.000211392 1.18268e-05
-1.30263e-05 0.00016936 1.24771e-05
-1.1499e-05 0.000136477 1.23728e-05
-1.34429e-05 0.000148442 1.69422e-05
-5.96078e-05 -2.20993e-06 2.923e-05
-4.98695e-05 -3.74175e-06 3.50322e-05
-5.2471e-05 3.14736e-07 9.11021e-06
-5.84242e-05 8.44021e-09 1.43536e-05
-6.17028e-05 -8.56794e-07 2.16859e-05
-1.92942e-06 0.000140888 2.89559e-05
-2.48783e-06 0.000159405 3.41913e-05
-2.63695e-06 0.000237258 4.18275e-05
-3.04405e-06 0.00020871 3.81375e-05
-2.35513e-06 0.000169382 3.27193e-05
4.87871e-05 6.96864e-06 -3.45146e-05
7.91097e-05 1.57089e-06 -1.36612e-05
7.00766e-05 2.26723e-06 -1.72944e-05
6.15874e-05 3.29001e-06 -2.17217e-05
5.44823e-05 4.70404e-06 -2.69837e-05
8.54604e-06 0.000141438 4.441e-05
9.52461e-06 0.00022418 7.01785e-05
9.11253e-06 0.000197485 6.22315e-05
8.61944e-06 0.000162801 5.10564e-05
0.000196759 1.28405e-05 -4.64322e-05
0.000182975 1.71611e-05 -6.25234e-05
2.04086e-05 0.000203571 9.16916e-05
2.05077e-05 0.000180475 8.06378e-05
0.000316663 3.05488e-05 -6.89393e-05
0.000166953 2.31106e-05 -8.04261e-05
1.97457e-05 0.000152107 6.67177e-05
0.000298175 3.96384e-05 -9.52236e-05
2.88474e-05 0.000157734 9.34337e-05
1.94986e-05 0.000136525 5.86426e-05
0.000145479 3.04703e-05 -0.000101327
0.000274126 5.14754e-05 -0.000124493
-3.44969e-05 -4.7105e-06 3.60867e-05
2.83583e-05 0.000136681 7.83136e-05
-8.66761e-06 5.19616e-05 -3.70665e-05
-0.00057746 3.37611e-05 0.000275849
-0.000633646 3.90659e-05 0.000247581
-0.000487891 2.08999e-05 0.000267745
-2.10499e-05 0.000101045 -6.42821e-05
-4.89266e-05 0.000322424 -0.000163267
-0.000422853 3.28578e-05 0.000310873
-0.000512736 5.05574e-05 0.000322342
-0.000578025 5.7561e-05 0.000290822
-7.47145e-05 0.000424123 -0.000181621
-3.68201e-05 0.000153177 -8.31552e-05
-1.21594e-05 4.36366e-05 -2.79216e-05
-0.000104926 0.00109215 -0.000338209
-0.00035132 3.87028e-05 0.000335027
-0.000512536 6.77172e-05 0.000319461
-0.000438323 5.89158e-05 0.000351448
-0.000135396 0.00129285 -0.000310678
-9.96123e-05 0.000526809 -0.000178409
-5.33662e-05 0.000208934 -9.03532e-05
-2.14099e-05 7.30839e-05 -3.76597e-05
-0.000439613 6.71482e-05 0.000333107
-0.000508404 6.88864e-05 0.000281258
-0.00017177 1.00617e-05 0.000223272
-0.000277669 3.52779e-05 0.000339562
-0.000360124 5.53587e-05 0.000360898
-6.78909e-05 0.000265773 -8.60866e-05
-3.04413e-05 0.000104506 -4.13442e-05
-0.000220878 1.26654e-05 0.000221509
1.34235e-06 -6.82718e-06 5.74942e-06
-0.000670405 3.56228e-05 0.000201621
-0.000695163 2.63434e-05 0.000148546
-0.000711971 2.36831e-05 0.000105508
-0.000723706 1.96356e-05 7.81544e-05
-4.198e-06 1.71302e-05 -1.28528e-05
-0.000626301 5.81612e-05 0.00023591
-1.23357e-06 4.58536e-06 -3.94534e-06
-6.76093e-06 2.48029e-05 -2.39477e-05
-1.36543e-05 5.29499e-05 -5.51372e-05
-1.77179e-05 7.57093e-05 -8.25056e-05
-0.000661927 4.56902e-05 0.000179478
-0.000685435 3.95382e-05 0.000127706
-0.000699658 3.5544e-05 9.25778e-05
-0.000572346 6.8998e-05 0.000263481
-5.87398e-06 1.95184e-05 -1.43133e-05
-2.38019e-05 9.34614e-05 -8.75098e-05
-1.12637e-05 3.74184e-05 -3.06508e-05
-1.91771e-05 6.76197e-05 -6.01719e-05
-0.000665069 4.5039e-05 0.000104989
-1.69684e-05 5.56313e-05 -2.58617e-05
-1.14388e-05 3.66477e-05 -2.19459e-05
-0.000618608 5.73052e-05 0.000203725
-0.000648515 4.89251e-05 0.000147541
-1.60532e-05 5.1645e-05 -3.46992e-05
-2.43792e-05 8.398e-05 -6.17561e-05
-2.937e-05 0.000113277 -8.78657e-05
-0.000563595 6.05041e-05 0.000220195
-0.000599997 5.19928e-05 0.000163075
-2.03892e-05 6.71325e-05 -3.56378e-05
-0.000153773 0.00147531 -0.000248152
-0.000118924 0.000624987 -0.000154869
-0.000207445 2.57444e-05 0.000322647
-0.000282216 4.3838e-05 0.000349304
-0.000363147 5.66815e-05 0.000328434
-0.000437196 5.98925e-05 0.000283717
-0.000125846 4.81266e-06 0.0002103
-0.000155312 0.00163383 -0.000151658
-0.000128738 0.00071574 -0.000111715
-7.76637e-05 0.000321039 -6.91507e-05
-3.77371e-05 0.000137191 -3.76705e-05
-8.52368e-05 -1.74822e-06 0.000183876
-0.000359908 4.29929e-05 0.000268575
-0.000143593 1.22921e-05 0.000286124
-0.000208553 2.7215e-05 0.000315819
-0.000286019 3.79983e-05 0.000304204
-0.000136793 0.00176257 -3.73824e-05
-0.000124644 0.000795421 -5.31577e-05
-7.98984e-05 0.000373426 -4.24089e-05
-4.14117e-05 0.000169068 -2.73032e-05
-5.20804e-05 -6.92389e-06 0.000146308
-2.72887e-05 -8.99931e-06 0.000100268
-9.66498e-05 0.00185766 9.7282e-05
-9.07978e-05 -8.83231e-07 0.000231345
-4.99812e-05 -9.15231e-06 0.000162754
-0.000104674 0.000860905 1.81849e-05
-0.00014305 9.90305e-06 0.000262095
-0.000210987 1.73865e-05 0.0002597
-8.76091e-05 -4.31574e-06 0.000190517
-7.16162e-05 0.000420459 -5.61796e-06
-3.9869e-05 0.000200288 -1.06089e-05
-0.000140471 5.21572e-07 0.000195516
-1.17882e-06 0.00133793 -0.000366569
-0.000311461 5.04639e-06 0.000178869
-3.49469e-05 0.000668625 -0.000279737
-2.36109e-05 0.000221945 -0.000127127
-1.57965e-05 0.00170045 -0.000399593
-6.60823e-05 0.000881496 -0.000323734
-0.000268526 1.0559e-05 0.000206715
-2.52123e-05 0.00204357 -0.000391484
-2.79688e-05 0.00235752 -0.000335326
-2.34615e-05 0.00263488 -0.000226517
-2.60671e-06 0.00286108 -8.71396e-05