# vtk DataFile Version 3.0
vtk output
ASCII
DATASET POLYDATA
POINTS 18483 float
0.151516 0.924926 -0.051858
0.151676 0.914944 -0.0513452
0.14088 0.930023 -0.0511059
0.151856 0.904952 -0.050768
0.141088 0.920035 -0.0505148
0.151984 0.894967 -0.0502963
0.141173 0.910049 -0.0501564
0.152149 0.884978 -0.0496941
0.141363 0.90006 -0.0495889
0.13055 0.925126 -0.0494185
0.152303 0.874988 -0.049105
0.141528 0.890071 -0.0490917
0.130684 0.915142 -0.0489725
0.130832 0.90515 -0.0485418
0.152461 0.865003 -0.0484945
0.141717 0.880087 -0.0485016
0.184039 0.869704 -0.0500229
0.173407 0.874782 -0.0501484
0.194587 0.874617 -0.0502835
0.194717 0.864634 -0.0496133
0.205243 0.869542 -0.04974
0.162863 0.869891 -0.0494639
0.184197 0.859727 -0.0493611
0.205354 0.85956 -0.0490995
0.173579 0.864804 -0.0495038
0.163034 0.859901 -0.0488217
0.184342 0.849739 -0.0487248
0.173688 0.854817 -0.0489253
0.194845 0.854655 -0.0489493
0.173844 0.84483 -0.0483077
0.194996 0.844667 -0.0483038
0.205485 0.849579 -0.0484276
0.215708 0.874454 -0.0498704
0.21582 0.864473 -0.0492026
0.236563 0.8743 -0.0496537
0.257176 0.874157 -0.0497184
0.226237 0.869385 -0.0493649
0.246906 0.869237 -0.0494585
0.267471 0.869105 -0.0493496
0.226338 0.859404 -0.0487311
0.246973 0.859256 -0.0488562
0.267521 0.859126 -0.0487449
0.236654 0.864325 -0.0490091
0.257235 0.864184 -0.0490725
0.21593 0.854494 -0.048547
0.257295 0.8542 -0.0484505
0.236732 0.854341 -0.0484008
0.183888 0.879691 -0.050673
0.205116 0.879522 -0.050396
0.162645 0.879873 -0.0501146
0.194446 0.884597 -0.050931
0.173217 0.884773 -0.0507842
0.16249 0.88986 -0.0507442
0.183706 0.88967 -0.0513307
0.205 0.889507 -0.0510353
0.161886 0.929814 -0.0531545
0.162065 0.919828 -0.0525082
0.162227 0.90984 -0.0519081
0.16238 0.899854 -0.0513153
0.194295 0.894571 -0.0516016
0.17301 0.894751 -0.0514156
0.183565 0.899653 -0.0519927
0.204877 0.899482 -0.0517032
0.194159 0.904557 -0.0522433
0.172822 0.90474 -0.0520525
0.183384 0.909634 -0.0526518
0.204763 0.909468 -0.052344
0.172641 0.914728 -0.0526828
0.194033 0.914538 -0.0528418
0.183176 0.919617 -0.0533485
0.204645 0.919447 -0.0529872
0.172496 0.924711 -0.0533321
0.19391 0.924521 -0.0535033
0.182972 0.929608 -0.0540565
0.204514 0.929423 -0.053638
0.22612 0.879362 -0.0500525
0.246833 0.879215 -0.0500973
0.267419 0.879082 -0.0499832
0.215606 0.884433 -0.0504969
0.257116 0.884134 -0.050353
0.236478 0.884282 -0.0502817
0.215498 0.894409 -0.0511467
0.215397 0.904394 -0.0517857
0.215296 0.914374 -0.0524167
0.215195 0.924356 -0.0530741
0.226026 0.889344 -0.0506976
0.246762 0.889196 -0.0507231
0.267367 0.889062 -0.0506117
0.236393 0.894256 -0.050936
0.257048 0.894111 -0.0509959
0.225915 0.899317 -0.0513912
0.246684 0.899173 -0.0513418
0.267306 0.899037 -0.0512571
0.256976 0.904089 -0.0516398
0.236296 0.90424 -0.0515802
0.225817 0.909297 -0.0520325
0.246604 0.909158 -0.0519548
0.267247 0.90902 -0.0518726
0.236201 0.914218 -0.0522323
0.256908 0.914073 -0.0522452
0.225727 0.919281 -0.0526467
0.246531 0.919131 -0.0525882
0.267195 0.918993 -0.0525051
0.225648 0.929259 -0.0532671
0.236108 0.924191 -0.0529176
0.256848 0.924047 -0.0528832
0.246455 0.929116 -0.0531777
0.267128 0.928976 -0.0531219
0.297959 0.873946 -0.0500711
0.318342 0.873866 -0.0501407
0.277578 0.874032 -0.0497545
0.287818 0.868998 -0.0496912
0.308197 0.868921 -0.0497277
0.277653 0.86406 -0.0491312
0.298045 0.86398 -0.0493986
0.318403 0.863899 -0.0494674
0.298108 0.853999 -0.04876
0.318452 0.853919 -0.0488248
0.287917 0.85903 -0.0490754
0.308264 0.858952 -0.0490912
0.277768 0.85409 -0.0485002
0.287989 0.84905 -0.0484416
0.308321 0.848972 -0.0484459
0.328507 0.868839 -0.0498647
0.328545 0.85886 -0.04922
0.379088 0.873644 -0.0505222
0.368966 0.868682 -0.0501428
0.338595 0.873775 -0.0502664
0.358848 0.873705 -0.0503566
0.358878 0.863731 -0.0497103
0.3791 0.863677 -0.0498414
0.348759 0.868753 -0.0499355
0.379117 0.853697 -0.0491896
0.348792 0.858777 -0.0492881
0.368985 0.858714 -0.0494811
0.338643 0.863809 -0.0495841
0.369009 0.848735 -0.0488387
0.338685 0.853828 -0.0489422
0.358908 0.853757 -0.049055
0.338721 0.843847 -0.0483204
0.358931 0.843777 -0.0484227
0.379126 0.843725 -0.0485311
0.328597 0.848887 -0.0485563
0.34883 0.848805 -0.0486277
0.287747 0.87898 -0.0502723
0.308144 0.878899 -0.0503554
0.297895 0.883925 -0.0507128
0.31829 0.883844 -0.0507839
0.277498 0.884008 -0.0503639
0.28765 0.888949 -0.0509015
0.308072 0.888869 -0.0509851
0.277421 0.893977 -0.0509991
0.297808 0.893891 -0.0513596
0.318226 0.893811 -0.0514505
0.287573 0.898925 -0.0515242
0.308008 0.898847 -0.0516378
0.27737 0.903955 -0.0516307
0.277324 0.913938 -0.0522335
0.277283 0.923912 -0.0528699
0.297734 0.903872 -0.0519812
0.318174 0.903792 -0.0520793
0.287466 0.908896 -0.05215
0.30792 0.908822 -0.0522929
0.29764 0.913846 -0.0526026
0.318111 0.913764 -0.0527125
0.287391 0.918866 -0.0527485
0.307859 0.918797 -0.0529458
0.297576 0.92382 -0.0532357
0.318067 0.923738 -0.0533626
0.287281 0.928836 -0.0533767
0.307773 0.928771 -0.0536173
0.328454 0.878808 -0.0505304
0.34872 0.878721 -0.0506049
0.368942 0.878658 -0.050792
0.328413 0.888789 -0.0511594
0.328355 0.89876 -0.0518266
0.32831 0.908741 -0.0524579
0.328258 0.918708 -0.053127
0.32821 0.928687 -0.0537737
0.358817 0.883675 -0.0510088
0.379071 0.883621 -0.0511712
0.338553 0.883754 -0.0509125
0.36892 0.88863 -0.0514354
0.348683 0.888702 -0.0512213
0.379059 0.893588 -0.051852
0.338501 0.893721 -0.0516163
0.358788 0.89365 -0.0516525
0.34864 0.89867 -0.051892
0.368899 0.898606 -0.0520875
0.338449 0.903693 -0.052298
0.358755 0.903622 -0.0522939
0.37904 0.903567 -0.0524873
0.368877 0.90858 -0.052728
0.348603 0.908651 -0.0525084
0.37903 0.91354 -0.0531342
0.338406 0.913675 -0.0529502
0.358728 0.913603 -0.0529082
0.348565 0.918619 -0.0531806
0.368854 0.918555 -0.0533754
0.338362 0.923643 -0.053633
0.379014 0.923515 -0.0537818
0.358701 0.923579 -0.0535455
0.348534 0.928598 -0.0538063
0.368832 0.928535 -0.0539954
0.419456 0.873572 -0.050603
0.439607 0.873555 -0.0505144
0.389143 0.868638 -0.0500795
0.409358 0.868603 -0.0502068
0.429539 0.868578 -0.0502114
0.399286 0.873614 -0.0504648
0.399303 0.863641 -0.0498027
0.419464 0.863606 -0.0499258
0.439602 0.863589 -0.0498399
0.419473 0.853627 -0.0492706
0.439605 0.85361 -0.0491802
0.389189 0.85867 -0.0494205
0.409378 0.858635 -0.0495444
0.429541 0.85861 -0.0495395
0.389223 0.848693 -0.0487625
0.409395 0.848657 -0.048885
0.429548 0.848632 -0.0488782
0.399333 0.853668 -0.0491467
0.39935 0.843689 -0.0485063
0.419483 0.843655 -0.0486181
0.439599 0.843638 -0.0485225
0.45974 0.873533 -0.0506094
0.44967 0.868558 -0.0501975
0.469796 0.868547 -0.050185
0.489908 0.868547 -0.050132
0.479847 0.873539 -0.0504669
0.459725 0.863568 -0.0499391
0.479838 0.863567 -0.0498043
0.459726 0.853588 -0.0492889
0.449664 0.858591 -0.0495299
0.469775 0.85858 -0.0495205
0.489873 0.85858 -0.0494709
0.449667 0.848613 -0.0488724
0.469771 0.848602 -0.0488618
0.489862 0.848602 -0.0488143
0.479811 0.853594 -0.0491497
0.459712 0.843617 -0.0486301
0.479803 0.843615 -0.0485019
0.389111 0.878612 -0.0507325
0.409347 0.878578 -0.050865
0.429534 0.878552 -0.0508824
0.399255 0.883583 -0.0511179
0.419449 0.883548 -0.05126
0.439607 0.883531 -0.0511742
0.389087 0.888584 -0.0513776
0.409327 0.88855 -0.0515037
0.429534 0.888524 -0.051518
0.419438 0.893515 -0.0519184
0.439614 0.893497 -0.0518384
0.399232 0.893557 -0.0517658
0.389079 0.898559 -0.0520364
0.409313 0.898525 -0.0521553
0.429527 0.898499 -0.0521721
0.399198 0.903527 -0.0524104
0.419428 0.903494 -0.0525516
0.439612 0.903476 -0.0524752
0.389081 0.908533 -0.0526792
0.389076 0.918507 -0.0533338
0.38907 0.928486 -0.0539698
0.409293 0.908497 -0.052792
0.429527 0.908471 -0.052806
0.419417 0.913466 -0.053189
0.439619 0.913449 -0.0531156
0.399177 0.913506 -0.0530305
0.409282 0.918471 -0.0534389
0.429521 0.918445 -0.0534557
0.399145 0.923473 -0.0536815
0.419409 0.92344 -0.0538373
0.439618 0.923423 -0.053771
0.409269 0.92844 -0.0540837
0.429524 0.928414 -0.0541056
0.449669 0.878533 -0.0508664
0.469803 0.878522 -0.0508524
0.489923 0.878522 -0.0508001
0.459742 0.88351 -0.0512613
0.479879 0.883509 -0.0511246
0.449673 0.888505 -0.0514998
0.469826 0.888494 -0.0514851
0.489963 0.888494 -0.051433
0.459757 0.893476 -0.0519189
0.479912 0.893475 -0.0517835
0.449668 0.898481 -0.052147
0.469829 0.898469 -0.0521364
0.489974 0.89847 -0.0520864
0.459758 0.903456 -0.0525459
0.479921 0.903455 -0.0524112
0.449676 0.908453 -0.0527798
0.469854 0.908442 -0.0527652
0.490014 0.908443 -0.0527117
0.459774 0.913429 -0.0531795
0.47993 0.913435 -0.0530372
0.449675 0.918427 -0.0534279
0.469861 0.918417 -0.0534106
0.490028 0.918417 -0.0533578
0.459779 0.923404 -0.0538256
0.479964 0.923403 -0.0536901
0.449687 0.928395 -0.05409
0.469887 0.928386 -0.0540634
0.490068 0.928387 -0.0540085
0.500012 0.893477 -0.0518182
0.500002 0.913432 -0.0530724
0.500014 0.923406 -0.0537199
0.500018 0.873534 -0.0505126
0.520131 0.873532 -0.0504784
0.54026 0.873533 -0.0506172
0.510092 0.868547 -0.0501387
0.530204 0.868547 -0.0501913
0.55033 0.868558 -0.0502028
0.500065 0.863568 -0.0498547
0.520162 0.863566 -0.0498203
0.540276 0.863568 -0.0499585
0.500078 0.853588 -0.0492121
0.520168 0.853587 -0.0491762
0.540274 0.853588 -0.0493143
0.510128 0.858579 -0.0494944
0.530226 0.858579 -0.0495454
0.550338 0.85859 -0.0495556
0.510139 0.848601 -0.0488442
0.53023 0.848601 -0.0488956
0.550334 0.848612 -0.0489044
0.500123 0.843615 -0.0485731
0.520198 0.843615 -0.048532
0.540288 0.843616 -0.0486668
0.560393 0.873555 -0.050522
0.580544 0.873572 -0.0506125
0.570461 0.868577 -0.0502185
0.590642 0.868603 -0.0502025
0.600713 0.873614 -0.0504615
0.610857 0.868638 -0.050076
0.560399 0.863589 -0.0498546
0.580537 0.863606 -0.0499442
0.600696 0.863641 -0.0497986
0.560396 0.853609 -0.0492043
0.580529 0.853626 -0.0493003
0.57046 0.85861 -0.0495672
0.590621 0.858636 -0.0495393
0.61081 0.85867 -0.049417
0.570454 0.848632 -0.0489121
0.590605 0.848657 -0.0488796
0.610776 0.848693 -0.0487587
0.600667 0.853668 -0.0491419
0.560402 0.843637 -0.0485535
[...]
POINT_DATA 18483
VECTORS alpha float
-3.39545e-07 1.84235e-05 -1.21409e-06
-3.29367e-07 1.84502e-05 -1.22325e-06
1.20785e-06 -9.19263e-09 -2.00336e-08
-3.2463e-07 1.84751e-05 -1.2306e-06
1.17958e-06 -8.92698e-09 -1.63802e-08
-3.12251e-07 1.85006e-05 -1.1991e-06
1.15747e-06 -8.73002e-09 -7.18612e-09
-2.93153e-07 1.8526e-05 -1.16311e-06
1.13165e-06 -8.44384e-09 -4.33603e-09
-3.13936e-07 1.6579e-05 -1.06664e-06
-2.76374e-07 1.85493e-05 -1.17918e-06
1.10859e-06 -8.24894e-09 -2.32837e-10
-3.04897e-07 1.66044e-05 -1.07492e-06
-3.07563e-07 1.66275e-05 -1.09042e-06
-2.88047e-07 1.85733e-05 -1.20818e-06
1.08357e-06 -8.01137e-09 2.10173e-09
1.15543e-06 -8.27837e-09 7.49902e-08
-2.5067e-07 1.95342e-05 -1.28942e-06
-2.10239e-07 1.93415e-05 -1.32844e-06
-2.08783e-07 1.93661e-05 -1.31839e-06
1.18716e-06 -8.05953e-09 6.50665e-08
1.11331e-06 -8.2377e-09 5.41159e-08
1.12817e-06 -7.95338e-09 7.28024e-08
1.16025e-06 -7.76224e-09 6.31808e-08
-2.54404e-07 1.95579e-05 -1.28813e-06
1.08713e-06 -7.93257e-09 5.35992e-08
1.10433e-06 -7.64036e-09 7.11488e-08
-2.43589e-07 1.95811e-05 -1.27273e-06
-2.02403e-07 1.9389e-05 -1.30378e-06
-2.3885e-07 1.96032e-05 -1.27708e-06
-1.93877e-07 1.94108e-05 -1.30414e-06
1.13638e-06 -7.5445e-09 6.05416e-08
-1.49918e-07 1.81726e-05 -1.23064e-06
-1.46278e-07 1.81959e-05 -1.22143e-06
-1.08433e-07 1.64281e-05 -1.11752e-06
-7.22077e-08 1.44972e-05 -9.79122e-07
1.21537e-06 -7.57912e-09 4.41521e-08
1.24542e-06 -6.79699e-09 3.87779e-08
1.27597e-06 -6.01928e-09 2.89211e-08
1.18749e-06 -7.29386e-09 4.27149e-08
1.2166e-06 -6.52899e-09 3.74089e-08
1.24702e-06 -5.80137e-09 2.79886e-08
-1.07171e-07 1.64491e-05 -1.10152e-06
-7.24978e-08 1.45164e-05 -9.75054e-07
-1.44092e-07 1.82173e-05 -1.21549e-06
-7.00079e-08 1.4535e-05 -9.75365e-07
-1.03882e-07 1.64699e-05 -1.09554e-06
1.17903e-06 -8.578e-09 7.62227e-08
1.21189e-06 -8.28444e-09 6.69348e-08
1.13854e-06 -8.4804e-09 5.55585e-08
-2.11067e-07 1.93184e-05 -1.33752e-06
-2.52208e-07 1.95093e-05 -1.29309e-06
1.16452e-06 -8.73682e-09 5.42556e-08
1.20763e-06 -8.87983e-09 7.86387e-08
1.23978e-06 -8.56422e-09 6.88488e-08
1.27307e-06 -9.87777e-09 4.5983e-08
1.24366e-06 -9.59567e-09 4.73372e-08
1.21656e-06 -9.30375e-09 4.83653e-08
1.1892e-06 -9.0222e-09 5.10584e-08
-1.99746e-07 1.92925e-05 -1.32669e-06
-2.36317e-07 1.94821e-05 -1.29642e-06
1.234e-06 -9.20839e-09 8.00553e-08
1.26711e-06 -8.82586e-09 7.06782e-08
-1.95902e-07 1.92676e-05 -1.30993e-06
-2.27797e-07 1.94558e-05 -1.29652e-06
1.26511e-06 -9.56021e-09 8.21666e-08
1.29657e-06 -9.15888e-09 7.21106e-08
-2.20914e-07 1.94302e-05 -1.29905e-06
-1.92982e-07 1.92436e-05 -1.30984e-06
1.29655e-06 -9.8916e-09 8.56345e-08
1.32625e-06 -9.45539e-09 7.41902e-08
-2.23644e-07 1.94027e-05 -1.30831e-06
-2.0203e-07 1.9217e-05 -1.33198e-06
1.32937e-06 -1.02822e-08 8.84446e-08
1.35871e-06 -9.78783e-09 7.60983e-08
1.24044e-06 -7.76995e-09 4.5754e-08
1.27161e-06 -6.99622e-09 3.95275e-08
1.30224e-06 -6.16171e-09 2.98092e-08
-1.42167e-07 1.81504e-05 -1.23647e-06
-6.78458e-08 1.44781e-05 -9.8814e-07
-1.01353e-07 1.64068e-05 -1.12096e-06
-1.41427e-07 1.81267e-05 -1.24376e-06
-1.36976e-07 1.81034e-05 -1.23373e-06
-1.35158e-07 1.80803e-05 -1.23161e-06
-1.36924e-07 1.80543e-05 -1.22955e-06
1.26861e-06 -8.01784e-09 4.72205e-08
1.30048e-06 -7.24715e-09 4.0393e-08
1.33149e-06 -6.36293e-09 3.0408e-08
-9.85519e-08 1.63846e-05 -1.12132e-06
-6.99941e-08 1.44574e-05 -9.95416e-07
1.29594e-06 -8.22591e-09 4.90527e-08
1.32825e-06 -7.45637e-09 4.10464e-08
1.35965e-06 -6.52633e-09 3.14568e-08
-6.90859e-08 1.44377e-05 -9.95389e-07
-9.1823e-08 1.63623e-05 -1.11624e-06
1.32608e-06 -8.46756e-09 5.00672e-08
1.35874e-06 -7.74371e-09 4.00897e-08
1.39083e-06 -6.7823e-09 3.16034e-08
-8.64093e-08 1.63417e-05 -1.10584e-06
-6.84688e-08 1.44178e-05 -9.87428e-07
1.35488e-06 -8.73302e-09 5.13243e-08
1.38868e-06 -8.01489e-09 3.94866e-08
1.42113e-06 -7.01681e-09 3.17215e-08
1.38661e-06 -8.98903e-09 5.29673e-08
-8.14358e-08 1.63185e-05 -1.09971e-06
-6.80635e-08 1.43966e-05 -9.88607e-07
1.42079e-06 -8.27923e-09 3.81552e-08
1.4541e-06 -7.26055e-09 3.18865e-08
-1.88266e-08 1.10137e-05 -7.49917e-07
-1.99659e-08 9.60147e-06 -6.76233e-07
-3.63146e-08 1.26499e-05 -8.44801e-07
1.30189e-06 -4.87343e-09 2.36645e-08
1.32905e-06 -4.38295e-09 2.22815e-08
-3.67967e-08 1.26677e-05 -8.48532e-07
-2.05717e-08 1.10293e-05 -7.53304e-07
-2.05782e-08 9.61533e-06 -6.77389e-07
-1.96091e-08 1.10447e-05 -7.56727e-07
-1.98712e-08 9.62877e-06 -6.77012e-07
1.27182e-06 -4.72972e-09 2.40584e-08
1.29858e-06 -4.27386e-09 2.20514e-08
-3.65467e-08 1.26844e-05 -8.51484e-07
1.24636e-06 -4.59076e-09 2.40516e-08
1.27278e-06 -4.15405e-09 2.17431e-08
1.35319e-06 -3.8733e-09 2.18239e-08
1.32291e-06 -3.77169e-09 2.11014e-08
-1.42178e-08 6.19471e-06 -4.36241e-07
1.39327e-06 -2.51733e-09 2.08383e-08
-1.1555e-08 8.36921e-06 -5.90274e-07
-9.55978e-09 7.2518e-06 -5.03145e-07
-9.91201e-09 7.26278e-06 -5.04779e-07
-1.40995e-08 6.20397e-06 -4.38169e-07
1.37281e-06 -3.17933e-09 2.03758e-08
-1.33577e-08 6.21285e-06 -4.40477e-07
1.34211e-06 -3.03704e-09 2.01986e-08
1.36194e-06 -2.46549e-09 2.0398e-08
-1.27184e-08 8.38144e-06 -5.92167e-07
1.33505e-06 -2.36499e-09 2.0232e-08
-1.24799e-08 8.39327e-06 -5.93257e-07
-1.01406e-08 7.2728e-06 -5.08667e-07
-1.30105e-08 8.40464e-06 -5.92819e-07
-1.06924e-08 7.2828e-06 -5.09105e-07
-1.34646e-08 6.22132e-06 -4.40837e-07
1.29629e-06 -3.71637e-09 2.06007e-08
1.31493e-06 -2.93697e-09 2.00815e-08
1.32844e-06 -5.04805e-09 2.25998e-08
1.35623e-06 -4.52119e-09 2.22298e-08
-1.46724e-08 1.09975e-05 -7.4522e-07
-1.70014e-08 9.58752e-06 -6.74385e-07
-3.19278e-08 1.2632e-05 -8.49515e-07
1.35907e-06 -5.20956e-09 2.18744e-08
1.38698e-06 -4.65276e-09 2.17376e-08
-3.27295e-08 1.26139e-05 -8.59209e-07
-1.17368e-08 1.0981e-05 -7.43634e-07
-1.60484e-08 9.57308e-06 -6.71539e-07
1.38774e-06 -5.38569e-09 2.11631e-08
1.41572e-06 -4.75701e-09 2.14398e-08
-3.19264e-08 1.25962e-05 -8.62512e-07
-3.02508e-08 1.25785e-05 -8.5536e-07
-2.83391e-08 1.25593e-05 -8.58821e-07
-1.04271e-08 1.09644e-05 -7.41795e-07
-1.50144e-08 9.55866e-06 -6.68312e-07
1.42069e-06 -5.60014e-09 2.04207e-08
1.44821e-06 -4.83335e-09 2.03213e-08
-7.41715e-09 1.09486e-05 -7.38436e-07
-1.30572e-08 9.54477e-06 -6.66601e-07
1.45272e-06 -5.90875e-09 2.01243e-08
1.4792e-06 -4.94447e-09 1.95773e-08
-3.88049e-09 1.09311e-05 -7.39302e-07
-1.11847e-08 9.52917e-06 -6.67988e-07
1.48778e-06 -6.07834e-09 1.99668e-08
1.51389e-06 -4.94977e-09 1.94653e-08
1.38126e-06 -3.93953e-09 2.23308e-08
1.40137e-06 -3.26933e-09 2.05027e-08
1.42157e-06 -2.61893e-09 2.08171e-08
1.41208e-06 -4.09105e-09 2.21683e-08
1.44206e-06 -4.1527e-09 2.2469e-08
1.47465e-06 -4.29993e-09 2.23555e-08
1.50709e-06 -4.38211e-09 2.27673e-08
1.54177e-06 -4.46763e-09 2.33056e-08
-6.7998e-09 7.24145e-06 -4.98189e-07
-1.31082e-08 6.18547e-06 -4.34295e-07
-8.77414e-09 8.35694e-06 -5.86978e-07
1.45368e-06 -2.69385e-09 2.07786e-08
1.43263e-06 -3.43409e-09 2.0118e-08
-1.24506e-08 6.17577e-06 -4.33055e-07
-7.50517e-09 8.34393e-06 -5.86409e-07
-5.99779e-09 7.22993e-06 -4.98213e-07
1.46299e-06 -3.51597e-09 2.03879e-08
1.48369e-06 -2.81413e-09 2.10225e-08
-6.43129e-09 8.33122e-06 -5.86057e-07
-5.67221e-09 7.21901e-06 -4.96923e-07
-1.27318e-08 6.1661e-06 -4.30666e-07
1.51735e-06 -2.89346e-09 2.09392e-08
1.49589e-06 -3.66792e-09 2.01044e-08
-1.25257e-08 6.15682e-06 -4.28535e-07
-6.11401e-09 8.3183e-06 -5.87698e-07
-5.04642e-09 7.20795e-06 -4.98141e-07
1.52867e-06 -3.75433e-09 2.01936e-08
1.54983e-06 -3.01648e-09 2.07156e-08
-4.72104e-09 8.30462e-06 -5.88815e-07
-1.22057e-08 6.14634e-06 -4.29211e-07
-4.48355e-09 7.19574e-06 -5.00408e-07
1.56377e-06 -3.89397e-09 2.01851e-08
1.58516e-06 -3.11501e-09 2.06801e-08
-8.77836e-10 4.13192e-06 -2.9574e-07
-2.80748e-09 3.1003e-06 -2.2314e-07
1.41028e-06 -2.211e-09 1.34605e-08
1.42184e-06 -1.33993e-09 1.27752e-08
1.43475e-06 -1.0944e-09 1.26251e-08
-4.83141e-10 5.1615e-06 -3.6619e-07
-4.15846e-10 5.16945e-06 -3.66442e-07
-1.07418e-09 4.13816e-06 -2.96326e-07
-2.87183e-09 3.10499e-06 -2.23642e-07
-1.26655e-09 4.14425e-06 -2.95443e-07
-2.78546e-09 3.10959e-06 -2.23126e-07
1.37794e-06 -2.05747e-09 1.26257e-08
1.38969e-06 -1.30216e-09 1.23427e-08
1.40237e-06 -1.05719e-09 1.20555e-08
1.35042e-06 -1.93863e-09 1.22691e-08
1.36219e-06 -1.27341e-09 1.22436e-08
1.3745e-06 -1.02366e-09 1.17795e-08
-2.43767e-10 5.17682e-06 -3.67775e-07
4.2809e-10 5.18408e-06 -3.67693e-07
-1.88755e-09 4.14995e-06 -2.96548e-07
-2.98969e-09 3.11389e-06 -2.23942e-07
-1.00352e-09 2.067e-06 -1.48742e-07
1.44306e-06 -5.93513e-10 9.54099e-09
1.44882e-06 -9.27405e-11 9.93182e-09
1.45082e-06 9.49422e-11 -2.31349e-09
-3.96034e-10 1.0333e-06 -7.45342e-08
-1.01449e-09 2.07014e-06 -1.49053e-07
-3.632e-10 1.0349e-06 -7.45503e-08
-9.54093e-10 2.07317e-06 -1.48995e-07
1.41051e-06 -5.36198e-10 9.3962e-09
1.4162e-06 -8.90753e-11 9.39919e-09
1.4182e-06 6.07705e-11 -2.41279e-09
1.38238e-06 -4.92309e-10 9.36913e-09
1.38794e-06 -8.77624e-11 9.04531e-09
1.3899e-06 3.82914e-11 -2.49131e-09
-3.0099e-10 1.0364e-06 -7.45672e-08
-1.03656e-09 2.07605e-06 -1.49449e-07
-2.54609e-10 1.03787e-06 -7.47379e-08
1.43937e-06 -2.34891e-09 1.38073e-08
1.45095e-06 -1.37862e-09 1.29354e-08
1.46419e-06 -1.12119e-09 1.29853e-08
2.43263e-10 5.15379e-06 -3.64808e-07
-3.69491e-10 4.12565e-06 -2.9569e-07
-2.65349e-09 3.09558e-06 -2.23216e-07
1.4721e-06 -2.44361e-09 1.41947e-08
1.48389e-06 -1.42293e-09 1.29982e-08
1.4973e-06 -1.15053e-09 1.31141e-08
-1.67023e-10 4.11911e-06 -2.94954e-07
-2.63802e-09 3.09067e-06 -2.22365e-07
3.78365e-10 5.14547e-06 -3.64215e-07
1.50246e-06 -2.51679e-09 1.4794e-08
1.51466e-06 -1.47303e-09 1.30556e-08
1.52832e-06 -1.17884e-09 1.33633e-08
5.17938e-10 5.13733e-06 -3.63496e-07
3.9085e-11 4.11251e-06 -2.94704e-07
-2.6688e-09 3.0857e-06 -2.22015e-07
1.53639e-06 -2.54311e-09 1.55607e-08
1.56949e-06 -2.6521e-09 1.58989e-08
1.60546e-06 -2.73339e-09 1.66371e-08
1.54914e-06 -1.4954e-09 1.32627e-08
1.56294e-06 -1.17428e-09 1.37371e-08
3.13264e-10 4.10628e-06 -2.9401e-07
-2.7048e-09 3.08099e-06 -2.21565e-07
4.44199e-10 5.12929e-06 -3.62231e-07
1.58242e-06 -1.54933e-09 1.31436e-08
1.5965e-06 -1.21301e-09 1.38441e-08
1.17464e-09 5.12063e-06 -3.61915e-07
3.6103e-10 4.0992e-06 -2.93798e-07
-2.85989e-09 3.07566e-06 -2.21434e-07
1.61916e-06 -1.57075e-09 1.34053e-08
1.63347e-06 -1.22611e-09 1.41155e-08
1.47273e-06 -6.34609e-10 9.58794e-09
1.47863e-06 -9.90693e-11 1.01123e-08
1.48067e-06 1.11132e-10 -2.44747e-09
-9.38896e-10 2.06385e-06 -1.48607e-07
-4.2118e-10 1.03175e-06 -7.44387e-08
1.50602e-06 -6.74715e-10 9.63154e-09
1.51202e-06 -9.99945e-11 1.02882e-08
1.51407e-06 1.40851e-10 -2.47952e-09
-8.17825e-10 2.06055e-06 -1.48342e-07
-3.97476e-10 1.03009e-06 -7.43014e-08
1.53727e-06 -7.31588e-10 9.59466e-09
1.54339e-06 -1.25525e-10 1.02346e-08
1.5455e-06 1.46939e-10 -2.59427e-09
-8.5755e-10 2.05723e-06 -1.47819e-07
-4.77722e-10 1.02843e-06 -7.40885e-08
1.57203e-06 -7.14729e-10 1.0222e-08
1.5782e-06 -9.23203e-11 1.06475e-08
1.58033e-06 2.21949e-10 -2.30554e-09
-8.5015e-10 2.05406e-06 -1.474e-07
-5.61567e-10 1.0268e-06 -7.39268e-08
1.60581e-06 -7.44397e-10 1.05336e-08
1.61209e-06 -1.01461e-10 1.07403e-08
1.61428e-06 2.44249e-10 -2.33145e-09
-8.34745e-10 2.05049e-06 -1.47266e-07
-6.08207e-10 1.02505e-06 -7.38468e-08
1.64301e-06 -7.2058e-10 1.13663e-08
1.64936e-06 -4.03231e-11 1.11569e-08
1.65154e-06 3.41811e-10 -2.20989e-09
1.12817e-15 -1.32871e-12 9.60758e-14
2.17388e-15 -2.55287e-12 1.84154e-13
-7.67636e-16 -3.82272e-12 2.77121e-13
-3.05783e-16 -1.20138e-12 8.69977e-14
-3.84096e-10 -1.03333e-06 7.46753e-08
-1.01384e-09 -2.06701e-06 1.49139e-07
1.45081e-06 -1.02205e-10 2.40755e-09
1.44882e-06 8.68799e-11 -9.97427e-09
1.44306e-06 5.81618e-10 -9.5637e-09
-2.60184e-16 -1.35099e-12 9.78212e-14
-3.67415e-10 -1.03491e-06 7.48687e-08
-1.07706e-09 -2.07015e-06 1.49684e-07
-9.54334e-17 -1.56964e-12 1.13474e-13
-2.91493e-10 -1.03643e-06 7.48529e-08
-1.0441e-09 -2.07317e-06 1.49636e-07
1.41818e-06 -7.82124e-11 2.45086e-09
1.41621e-06 8.1995e-11 -9.63235e-09
1.41051e-06 5.29989e-10 -9.343e-09
1.38985e-06 -6.69271e-11 2.37465e-09
1.38794e-06 7.45935e-11 -9.48438e-09
1.38235e-06 4.87609e-10 -9.27806e-09
8.35256e-17 -1.80633e-12 1.30833e-13
-2.62497e-10 -1.03786e-06 7.51e-08
-1.14993e-09 -2.07604e-06 1.50136e-07
-2.85616e-09 -3.1003e-06 2.23937e-07
-9.71116e-10 -4.13193e-06 2.9666e-07
1.43476e-06 1.08762e-09 -1.27769e-08
1.42185e-06 1.32568e-09 -1.28439e-08
-5.2383e-10 -5.16148e-06 3.66713e-07
1.41028e-06 2.19887e-09 -1.354e-08
-2.96239e-09 -3.10502e-06 2.24604e-07
-1.31479e-09 -4.1382e-06 2.97574e-07
-5.21352e-10 -5.16945e-06 3.66875e-07
-2.82906e-09 -3.10961e-06 2.24138e-07
-1.48349e-09 -4.14429e-06 2.9665e-07
1.40244e-06 1.05341e-09 -1.24407e-08
1.38969e-06 1.28577e-09 -1.24535e-08
1.37793e-06 2.04447e-09 -1.27077e-08
1.37456e-06 1.02834e-09 -1.21561e-08
1.36219e-06 1.257e-09 -1.2358e-08
1.35041e-06 1.92658e-09 -1.23537e-08
-3.4223e-10 -5.17681e-06 3.68244e-07
-2.96824e-09 -3.11388e-06 2.25075e-07
-2.08434e-09 -4.14995e-06 2.97982e-07
3.47618e-10 -5.18406e-06 3.68108e-07
1.47797e-15 -1.77375e-12 1.28177e-13
1.48066e-06 -1.14477e-10 2.48949e-09
1.47862e-06 9.60456e-11 -1.00981e-08
1.47273e-06 6.25872e-10 -9.63032e-09
-4.32818e-16 -1.16992e-12 8.47542e-14
-4.23583e-10 -1.03174e-06 7.45554e-08
-9.33626e-10 -2.06385e-06 1.48829e-07
1.51406e-06 -1.42005e-10 2.53837e-09
1.51201e-06 9.89617e-11 -1.02616e-08
1.50602e-06 6.69188e-10 -9.63492e-09
-3.98585e-10 -1.03009e-06 7.43884e-08
-8.07733e-10 -2.06055e-06 1.48491e-07
1.54549e-06 -1.45673e-10 2.6718e-09
1.54338e-06 1.26949e-10 -1.01935e-08
1.53726e-06 7.29064e-10 -9.55695e-09
-4.78113e-10 -1.02842e-06 7.42239e-08
-8.4956e-10 -2.05722e-06 1.48099e-07
1.58032e-06 -2.20838e-10 2.38912e-09
1.57819e-06 9.31002e-11 -1.05835e-08
1.57202e-06 7.16259e-10 -1.01262e-08
-8.43029e-10 -2.05405e-06 1.4775e-07
-5.62005e-10 -1.02679e-06 7.4096e-08
1.61428e-06 -2.47184e-10 2.37394e-09
1.6121e-06 9.8786e-11 -1.07063e-08
1.60582e-06 7.4495e-10 -1.04277e-08
-6.0827e-10 -1.02504e-06 7.40494e-08
-8.38536e-10 -2.05049e-06 1.47706e-07
1.65154e-06 -3.49359e-10 2.26517e-09
1.64937e-06 3.30686e-11 -1.11049e-08
1.64303e-06 7.15691e-10 -1.12158e-08
1.46418e-06 1.11901e-09 -1.30073e-08
1.45096e-06 1.36657e-09 -1.2984e-08
1.43938e-06 2.33549e-09 -1.38815e-08
-2.68223e-09 -3.09555e-06 2.23713e-07
-3.81115e-10 -4.12564e-06 2.96229e-07
1.38242e-10 -5.15378e-06 3.6561e-07
1.4973e-06 1.15194e-09 -1.31067e-08
1.48391e-06 1.41416e-09 -1.30369e-08
1.4721e-06 2.43046e-09 -1.42684e-08
-2.65815e-09 -3.09064e-06 2.22747e-07
-1.64769e-10 -4.1191e-06 2.95318e-07
2.96432e-10 -5.14544e-06 3.6492e-07
1.52831e-06 1.18375e-09 -1.33327e-08
1.51467e-06 1.46774e-09 -1.30885e-08
1.50247e-06 2.50394e-09 -1.48718e-08
-2.68795e-09 -3.08566e-06 2.2254e-07
4.05511e-11 -4.11248e-06 2.95297e-07
4.39854e-10 -5.13729e-06 3.64283e-07
1.56294e-06 1.18228e-09 -1.36665e-08
1.54916e-06 1.49335e-09 -1.32879e-08
-2.72464e-09 -3.08094e-06 2.22128e-07
3.1667e-10 -4.10624e-06 2.9463e-07
3.74052e-10 -5.12925e-06 3.63078e-07
1.59652e-06 1.21413e-09 -1.37827e-08
1.58244e-06 1.54225e-09 -1.31716e-08
-2.89136e-09 -3.07564e-06 2.22097e-07
3.35786e-10 -4.09918e-06 2.94568e-07
1.13857e-09 -5.1206e-06 3.62476e-07
1.63349e-06 1.22128e-09 -1.40111e-08
1.61919e-06 1.55869e-09 -1.34045e-08
1.53594e-06 2.59992e-09 -1.52719e-08
1.5695e-06 2.65677e-09 -1.59176e-08
1.60548e-06 2.7338e-09 -1.66244e-08
-1.4244e-08 -6.19471e-06 4.36608e-07
1.39328e-06 2.50522e-09 -2.10514e-08
-9.61539e-09 -7.25177e-06 5.04117e-07
-1.1589e-08 -8.36921e-06 5.91056e-07
-1.41702e-08 -6.20397e-06 4.38591e-07
-9.96581e-09 -7.26277e-06 5.05575e-07
1.37281e-06 3.17089e-09 -2.05374e-08
-1.34205e-08 -6.21284e-06 4.40936e-07
1.36193e-06 2.45393e-09 -2.05539e-08
1.34208e-06 3.02913e-09 -2.03124e-08
-1.26353e-08 -8.38143e-06 5.92674e-07
1.33504e-06 2.35612e-09 -2.03421e-08
-1.01852e-08 -7.27276e-06 5.0955e-07
-1.23973e-08 -8.39322e-06 5.93912e-07
1.35321e-06 3.8691e-09 -2.19325e-08
1.32293e-06 3.76333e-09 -2.13046e-08
-1.35035e-08 -6.22128e-06 4.41202e-07
-1.07244e-08 -7.28274e-06 5.09819e-07
-1.29202e-08 -8.40456e-06 5.9328e-07
1.31491e-06 2.93091e-09 -2.01523e-08
1.29632e-06 3.70656e-09 -2.08147e-08
-2.00832e-08 -9.60148e-06 6.76734e-07
-1.88727e-08 -1.10137e-05 7.50345e-07
1.32906e-06 4.37834e-09 -2.23568e-08
1.30189e-06 4.86525e-09 -2.37174e-08
-3.63264e-08 -1.26499e-05 8.45064e-07
-2.0703e-08 -9.61534e-06 6.77927e-07
-2.06489e-08 -1.10293e-05 7.53762e-07
-3.68224e-08 -1.26677e-05 8.48894e-07
-1.99562e-08 -9.62877e-06 6.77496e-07
-1.96514e-08 -1.10447e-05 7.57168e-07
1.29859e-06 4.26405e-09 -2.21831e-08
1.27181e-06 4.71997e-09 -2.40989e-08
1.27279e-06 4.14244e-09 -2.18824e-08
1.24635e-06 4.57896e-09 -2.40961e-08
-3.65341e-08 -1.26844e-05 8.51687e-07
1.42159e-06 2.60536e-09 -2.10168e-08
1.40138e-06 3.25884e-09 -2.06582e-08
1.38128e-06 3.93562e-09 -2.24518e-08
-1.32148e-08 -6.18547e-06 4.34962e-07
-6.94999e-09 -7.24144e-06 4.99428e-07
-8.92617e-09 -8.35697e-06 5.88031e-07
1.45369e-06 2.68087e-09 -2.09697e-08
1.43264e-06 3.42406e-09 -2.027e-08
-1.25277e-08 -6.17577e-06 4.33611e-07
-6.11e-09 -7.22992e-06 4.99295e-07
-7.61949e-09 -8.34396e-06 5.87297e-07
1.48371e-06 2.80186e-09 -2.12093e-08
1.46301e-06 3.5066e-09 -2.05404e-08
-1.27978e-08 -6.16609e-06 4.31304e-07
-5.78057e-09 -7.219e-06 4.98068e-07
-7.3199e-09 -8.33094e-06 5.87352e-07
1.51737e-06 2.88167e-09 -2.11207e-08
1.49591e-06 3.65886e-09 -2.02585e-08
-1.25813e-08 -6.15681e-06 4.29224e-07
-5.149e-09 -7.20793e-06 4.99315e-07
-6.21038e-09 -8.3183e-06 5.88691e-07
1.54985e-06 3.01879e-09 -2.0822e-08
1.52869e-06 3.75518e-09 -2.02807e-08
-1.22189e-08 -6.14629e-06 4.29669e-07
-4.66506e-09 -8.30458e-06 5.8926e-07
-4.51607e-09 -7.1957e-06 5.01158e-07
1.58518e-06 3.11385e-09 -2.07213e-08
1.56379e-06 3.89162e-09 -2.02119e-08
1.4121e-06 4.08592e-09 -2.22804e-08
1.44208e-06 4.14619e-09 -2.25703e-08
1.47468e-06 4.29218e-09 -2.24485e-08
1.50713e-06 4.38141e-09 -2.28546e-08
1.54183e-06 4.46487e-09 -2.33871e-08
1.35624e-06 4.51712e-09 -2.23176e-08
1.32845e-06 5.04157e-09 -2.26675e-08
-1.71343e-08 -9.58753e-06 6.74932e-07
-1.47347e-08 -1.09975e-05 7.45687e-07
-3.19396e-08 -1.2632e-05 8.49772e-07
1.387e-06 4.64736e-09 -2.18175e-08
1.35909e-06 5.20274e-09 -2.19363e-08
-1.61925e-08 -9.5731e-06 6.72094e-07
-1.18125e-08 -1.0981e-05 7.44116e-07
-3.27425e-08 -1.26139e-05 8.59459e-07
1.41574e-06 4.75021e-09 -2.15102e-08
1.38776e-06 5.37849e-09 -2.12181e-08
-1.516e-08 -9.55868e-06 6.68875e-07
-1.05092e-08 -1.09644e-05 7.42296e-07
1.44823e-06 4.82523e-09 -2.03843e-08
1.42072e-06 5.5927e-09 -2.04707e-08
-1.32131e-08 -9.54479e-06 6.6718e-07
-7.51178e-09 -1.09486e-05 7.38961e-07
1.47924e-06 4.9388e-09 -1.96364e-08
1.45273e-06 5.89537e-09 -2.01332e-08
-1.12715e-08 -9.52918e-06 6.68355e-07
-3.93528e-09 -1.09311e-05 7.39626e-07
1.51394e-06 4.94167e-09 -1.95187e-08
1.4878e-06 6.0619e-09 -1.99685e-08
-3.19289e-08 -1.25962e-05 8.62749e-07
-3.02546e-08 -1.25785e-05 8.55598e-07
-2.83918e-08 -1.25593e-05 8.59113e-07
-7.21573e-08 -1.44971e-05 9.7931e-07
-1.08424e-07 -1.6428e-05 1.11763e-06
1.27597e-06 6.01354e-09 -2.89482e-08
1.24541e-06 6.79467e-09 -3.87765e-08
1.21537e-06 7.57648e-09 -4.41509e-08
-1.49903e-07 -1.81725e-05 1.23076e-06
-1.46269e-07 -1.81958e-05 1.22158e-06
1.24701e-06 5.79392e-09 -2.80028e-08
1.21659e-06 6.52677e-09 -3.7406e-08
1.18749e-06 7.29158e-09 -4.27087e-08
-7.24352e-08 -1.45163e-05 9.75298e-07
-1.07161e-07 -1.64491e-05 1.10163e-06
-6.9929e-08 -1.45348e-05 9.75463e-07
-1.03836e-07 -1.64698e-05 1.09553e-06
-1.44047e-07 -1.82171e-05 1.21549e-06
1.15543e-06 8.27749e-09 -7.49898e-08
-2.10218e-07 -1.93414e-05 1.32856e-06
-2.50636e-07 -1.95341e-05 1.28952e-06
-2.08766e-07 -1.9366e-05 1.31854e-06
1.18716e-06 8.05708e-09 -6.50656e-08
1.16025e-06 7.76007e-09 -6.31762e-08
1.12817e-06 7.95263e-09 -7.28001e-08
-2.54371e-07 -1.95578e-05 1.28824e-06
1.11331e-06 8.23723e-09 -5.41164e-08
1.10432e-06 7.63911e-09 -7.11475e-08
-2.02331e-07 -1.9389e-05 1.30393e-06
-2.4351e-07 -1.9581e-05 1.27285e-06
1.08713e-06 7.93207e-09 -5.36013e-08
-1.93829e-07 -1.94107e-05 1.30414e-06
-2.38797e-07 -1.96031e-05 1.27705e-06