# vtk DataFile Version 3.0
vtk output
ASCII
DATASET POLYDATA
POINTS 8080 float
0.189149 0.399773 -0.0227528
0.199251 0.404727 -0.0227643
0.490017 0.409509 -0.0223589
0.189187 0.389773 -0.0221351
0.199286 0.394732 -0.0221201
0.209382 0.39968 -0.0221588
0.219472 0.40463 -0.022287
0.319898 0.404618 -0.0221457
0.3698 0.40951 -0.0223853
0.380065 0.404609 -0.0221322
0.470015 0.409505 -0.0223783
0.239661 0.404539 -0.0220392
0.259774 0.404793 -0.0221157
0.279787 0.404727 -0.0219518
0.299758 0.404669 -0.0219074
0.339877 0.404573 -0.0220548
0.359827 0.404536 -0.0220172
0.400036 0.404575 -0.0220474
0.42001 0.404549 -0.0219972
0.440031 0.404526 -0.0221027
0.460009 0.404515 -0.0220417
0.479989 0.404509 -0.0220432
0.810851 0.399773 -0.0227528
0.800748 0.404727 -0.0227647
0.509983 0.409509 -0.022359
0.529985 0.409505 -0.0223785
0.619935 0.404609 -0.0221327
0.680102 0.404618 -0.0221458
0.6302 0.40951 -0.0223855
0.810813 0.389773 -0.0221351
0.800714 0.394732 -0.0221201
0.790618 0.39968 -0.0221588
0.780528 0.40463 -0.0222874
0.500029 0.404508 -0.0221061
0.520011 0.404509 -0.0220434
0.539991 0.404515 -0.022042
0.559969 0.404526 -0.0221032
0.57999 0.404549 -0.0219977
0.599964 0.404575 -0.0220479
0.640173 0.404536 -0.0220174
0.660123 0.404573 -0.0220549
0.700242 0.404669 -0.0219074
0.720213 0.404727 -0.0219518
0.740226 0.404793 -0.0221157
0.760339 0.404539 -0.0220397
0.118364 0.524874 -0.0258736
0.118392 0.514836 -0.0253623
0.108342 0.529939 -0.0250296
0.108375 0.519893 -0.0245214
0.118441 0.504787 -0.0248277
0.118472 0.494751 -0.0243027
0.10842 0.509848 -0.024015
0.098401 0.524944 -0.0234776
0.118503 0.484743 -0.0237436
0.108444 0.499816 -0.0235024
0.0984274 0.514909 -0.022977
0.118551 0.474757 -0.0231593
0.108475 0.489799 -0.023005
0.0984521 0.504879 -0.0224841
0.118599 0.464776 -0.022588
0.108517 0.479809 -0.0224553
0.0884568 0.530033 -0.0220533
0.0984716 0.494838 -0.0220325
0.118652 0.454767 -0.0220205
0.108565 0.469788 -0.0219161
0.169064 0.419801 -0.0227277
0.158903 0.424848 -0.0230201
0.179162 0.424734 -0.0231073
0.169012 0.429767 -0.0234064
0.158853 0.434799 -0.0236471
0.179127 0.434696 -0.0237265
0.148693 0.439821 -0.0237815
0.168974 0.439724 -0.0240432
0.158809 0.444754 -0.0242898
0.179099 0.444659 -0.0243601
0.168932 0.449692 -0.0246603
0.14864 0.449776 -0.0244272
0.179066 0.454636 -0.024984
0.158768 0.454716 -0.024935
0.1689 0.459664 -0.0253078
0.148589 0.45974 -0.0250735
0.158723 0.464694 -0.0255601
0.17904 0.464613 -0.0256385
0.138407 0.464764 -0.0251006
0.168864 0.469648 -0.0259709
0.148539 0.469716 -0.0257294
0.128221 0.469782 -0.0250257
0.138469 0.454797 -0.0244953
0.128321 0.459827 -0.024339
0.138528 0.444844 -0.0238526
0.128392 0.449872 -0.0236959
0.138593 0.4349 -0.0232062
0.148754 0.429874 -0.023169
0.128491 0.439936 -0.0229954
0.13866 0.424962 -0.0225788
0.148823 0.41991 -0.0224917
0.128568 0.429995 -0.0223948
0.158981 0.414864 -0.0223089
0.179227 0.414758 -0.0223806
0.169137 0.409816 -0.0220203
0.138776 0.414979 -0.0218437
0.189094 0.409765 -0.02344
0.209345 0.409669 -0.0228493
0.229553 0.409576 -0.0224619
0.249751 0.409635 -0.0224203
0.199196 0.414712 -0.0235056
0.219435 0.414617 -0.022984
0.239629 0.414525 -0.0227178
0.189023 0.419748 -0.0242089
0.209303 0.419647 -0.0235975
0.229528 0.41955 -0.0231868
0.249727 0.419655 -0.0231399
0.19914 0.424689 -0.0242427
0.219403 0.424587 -0.0237404
0.239607 0.424491 -0.0234528
0.18896 0.429705 -0.0249401
0.209266 0.429612 -0.0242782
0.229508 0.429512 -0.0238784
0.249711 0.429631 -0.0238124
0.199102 0.434637 -0.0249085
0.219385 0.434542 -0.0243866
0.239596 0.434454 -0.0240759
0.188908 0.439655 -0.0256165
0.209243 0.439568 -0.0249367
0.229495 0.439484 -0.0244939
0.249696 0.439583 -0.0243886
0.199067 0.444593 -0.0256208
0.219372 0.444507 -0.025037
0.239593 0.444425 -0.0247012
0.188858 0.449621 -0.026295
0.209222 0.44954 -0.0255985
0.229489 0.44946 -0.0251351
0.249692 0.449544 -0.024996
0.199038 0.454566 -0.026276
0.219365 0.454484 -0.025682
0.239595 0.454404 -0.0253261
0.188815 0.459604 -0.0269549
0.209205 0.459524 -0.0262533
0.229489 0.459446 -0.0257739
0.249691 0.459522 -0.025626
0.19901 0.464557 -0.0269433
0.219357 0.464475 -0.0263408
0.239596 0.464394 -0.0259666
0.188772 0.469607 -0.0276224
0.209188 0.46953 -0.0269253
0.229486 0.469449 -0.0264348
0.249694 0.469526 -0.0262711
0.158676 0.474684 -0.0262183
0.179005 0.474606 -0.026306
0.138345 0.474747 -0.025743
0.168824 0.479649 -0.0266218
0.148486 0.479712 -0.0263652
0.128154 0.479771 -0.0256369
0.158635 0.484688 -0.0268506
0.178974 0.484608 -0.0269574
0.138291 0.484749 -0.0263584
0.168792 0.489655 -0.0272551
0.148443 0.489719 -0.0269762
0.128098 0.489776 -0.0262244
0.158612 0.494709 -0.0273989
0.178957 0.494637 -0.0275295
0.13826 0.494753 -0.0268752
0.168787 0.499708 -0.0277505
0.148433 0.499743 -0.0274414
0.128083 0.499771 -0.0266536
0.178958 0.504715 -0.0280502
0.15861 0.504743 -0.0279238
0.138246 0.504768 -0.0273855
0.168785 0.509794 -0.0282863
0.148422 0.509805 -0.0279508
0.128089 0.509812 -0.0271045
0.178962 0.514823 -0.0286143
0.158605 0.514825 -0.0284578
0.138232 0.514828 -0.0278915
0.168787 0.519918 -0.0288557
0.148414 0.519907 -0.0284862
0.128069 0.519889 -0.0276089
0.178969 0.524974 -0.0292114
0.158605 0.524955 -0.029014
0.138222 0.524938 -0.0284132
0.168789 0.530084 -0.0294669
0.148409 0.530058 -0.0290509
0.128052 0.530017 -0.0281389
0.198977 0.474571 -0.0276053
0.219344 0.474488 -0.0270055
0.239586 0.474425 -0.0265984
0.188724 0.47964 -0.0282624
0.209165 0.479556 -0.0275745
0.229476 0.479471 -0.027087
0.249689 0.479563 -0.0269441
0.198945 0.484608 -0.0282525
0.219331 0.484515 -0.027659
0.239579 0.484446 -0.027255
0.188683 0.489699 -0.0289063
0.209146 0.489601 -0.0282304
0.229469 0.489502 -0.0277486
0.249684 0.489598 -0.0276267
0.198929 0.494651 -0.0288357
0.219329 0.494552 -0.0282422
0.239582 0.494487 -0.0278369
0.188665 0.499718 -0.0294862
0.209151 0.499624 -0.0287842
0.229481 0.499565 -0.0282642
0.249702 0.49966 -0.0280808
0.198923 0.504741 -0.0293995
0.21934 0.504637 -0.0287845
0.2396 0.504539 -0.0283726
0.188643 0.50984 -0.0300946
0.209153 0.509739 -0.0293623
0.249722 0.50979 -0.0285512
0.229499 0.509633 -0.0288281
0.198918 0.514898 -0.0300083
0.219352 0.514779 -0.0293655
0.239617 0.514672 -0.0289298
0.188624 0.520034 -0.030737
0.209159 0.519915 -0.0299745
0.229511 0.519864 -0.0294306
0.24973 0.519918 -0.0291091
0.198912 0.525131 -0.0306705
0.219364 0.524986 -0.0299991
0.239628 0.524934 -0.0295684
0.188604 0.53031 -0.0314387
0.209163 0.53016 -0.0306459
0.229525 0.530101 -0.0300981
0.249742 0.53028 -0.02966
0.118322 0.534914 -0.0264162
0.0983535 0.534987 -0.0239705
0.108281 0.539974 -0.0255637
0.0884048 0.540069 -0.0225877
0.118263 0.544983 -0.0270218
0.0983013 0.545029 -0.0245067
0.108225 0.550031 -0.026169
0.0883551 0.550114 -0.023172
0.118223 0.555144 -0.0276154
0.0982672 0.555095 -0.0249987
0.108229 0.560156 -0.0266275
0.0883633 0.560176 -0.0235648
0.118236 0.565333 -0.0281296
0.0982734 0.565197 -0.0254189
0.108234 0.57035 -0.0271435
0.0883882 0.570239 -0.0239652
0.118248 0.57539 -0.0286452
0.0982882 0.57534 -0.0259136
0.108246 0.580451 -0.0277035
0.0884125 0.580309 -0.0244318
0.118275 0.585462 -0.0292111
0.0982924 0.585528 -0.0265346
0.0785653 0.585419 -0.0227388
0.108262 0.590518 -0.0283186
0.0884178 0.590435 -0.025022
0.11828 0.595542 -0.0298648
0.0982745 0.595586 -0.0272133
0.0785451 0.595455 -0.0233876
0.0785936 0.575382 -0.022253
0.0785849 0.5653 -0.021863
0.0588367 0.656033 -0.0223616
0.0588666 0.646033 -0.0220082
0.108223 0.600593 -0.0290749
0.0883354 0.60064 -0.0258857
0.118234 0.605654 -0.0307356
0.0981889 0.605639 -0.028082
0.0784522 0.605549 -0.0242596
0.10814 0.610697 -0.0300434
0.0882174 0.610691 -0.0268566
0.0686412 0.610665 -0.0225649
0.118127 0.615796 -0.031812
0.0980715 0.615742 -0.0291555
0.0782955 0.615771 -0.0253984
0.108019 0.620876 -0.0310267
0.0880987 0.6208 -0.0278175
0.0684365 0.620654 -0.0234929
0.118023 0.626043 -0.0327502
0.0979604 0.625942 -0.0300309
0.0781764 0.625851 -0.0262448
0.107909 0.631099 -0.0319937
0.0879831 0.630971 -0.0287085
0.0683368 0.630919 -0.0243975
0.117924 0.636296 -0.0337435
0.0978432 0.636129 -0.0309739
0.078069 0.63597 -0.0271183
0.107811 0.641357 -0.0329307
0.0878663 0.641136 -0.029596
0.0682434 0.640971 -0.0251639
0.117837 0.646604 -0.0346866
0.0977537 0.646362 -0.0318496
0.077978 0.646115 -0.0279112
0.107732 0.651654 -0.0337796
0.087783 0.651319 -0.0303621
0.0681917 0.651063 -0.0257871
0.117748 0.656973 -0.0355841
0.0976724 0.656636 -0.0326194
0.0779006 0.656272 -0.0285752
0.158586 0.535195 -0.0296307
0.178962 0.535151 -0.029867
0.138198 0.535093 -0.0289726
0.168764 0.540291 -0.030147
0.148376 0.540255 -0.029674
0.128006 0.540204 -0.0287191
0.158563 0.545311 -0.030283
0.178949 0.545246 -0.0305367
0.138162 0.545375 -0.0295853
0.148346 0.550361 -0.030322
0.168751 0.550293 -0.0307805
0.127944 0.550451 -0.029363
0.158561 0.555383 -0.0308533
0.178954 0.555315 -0.0310889
0.138151 0.55545 -0.0301709
0.148363 0.560441 -0.0308594
0.168776 0.560388 -0.0312705
0.127951 0.560523 -0.029941
0.158585 0.565476 -0.0313641
0.178985 0.56542 -0.0315398
0.138166 0.565534 -0.0307295
0.148386 0.570535 -0.031377
0.168807 0.570492 -0.0317397
0.127966 0.570612 -0.0304909
0.158615 0.57558 -0.0318529
0.179021 0.57553 -0.031987
0.13819 0.575633 -0.0312443
0.148411 0.58064 -0.0318906
0.168837 0.580603 -0.0322316
0.127983 0.580681 -0.0309972
0.17904 0.585626 -0.0325043
0.138198 0.585718 -0.0318057
0.158635 0.585698 -0.032412
0.168842 0.590705 -0.0328383
0.148414 0.590769 -0.0325193
0.127979 0.590813 -0.0316152
0.158614 0.595821 -0.0331258
0.179038 0.595774 -0.0332145
0.138173 0.59587 -0.032521
0.198897 0.535306 -0.0313546
0.219365 0.535257 -0.0306974
0.239633 0.535194 -0.0302713
0.18857 0.540373 -0.0320992
0.20915 0.540316 -0.0313231
0.229525 0.540263 -0.0307748
0.249731 0.540488 -0.0303262
0.198881 0.545391 -0.0320131
0.219366 0.545292 -0.0313279
0.23964 0.545205 -0.0308869
0.188544 0.550474 -0.0327826
0.209148 0.550387 -0.0319801
0.229532 0.550279 -0.0314111
[...]
POINT_DATA 8080
VECTORS alpha float
4.31159e-06 -1.91618e-08 1.70194e-07
-1.72322e-08 1.63873e-05 -1.14164e-06
5.95625e-06 2.06712e-10 -1.32502e-08
4.14815e-06 -1.76616e-08 1.70788e-07
-1.68517e-08 1.64857e-05 -1.13814e-06
4.49212e-06 -1.93295e-08 1.21652e-07
7.69198e-09 1.5354e-05 -1.0607e-06
1.17372e-08 7.82653e-06 -5.65467e-07
5.64401e-06 -9.48066e-09 -8.70209e-09
4.51295e-09 4.97768e-06 -3.572e-07
5.93919e-06 -1.57695e-09 1.84149e-09
2.76601e-08 1.38051e-05 -9.44315e-07
1.30441e-08 1.21148e-05 -8.79531e-07
1.6457e-08 1.0482e-05 -7.55301e-07
1.8535e-08 9.0456e-06 -6.47744e-07
1.0393e-08 6.77524e-06 -4.90826e-07
8.55759e-09 5.84134e-06 -4.23093e-07
2.52462e-09 4.13489e-06 -2.98135e-07
8.75117e-10 3.30368e-06 -2.3889e-07
1.75491e-09 2.4755e-06 -1.79372e-07
6.08762e-10 1.64894e-06 -1.19146e-07
2.21955e-11 8.23874e-07 -5.94823e-08
4.31182e-06 1.91624e-08 -1.70214e-07
-1.72581e-08 -1.63874e-05 1.1415e-06
5.95622e-06 -2.10434e-10 1.32168e-08
5.93912e-06 1.57081e-09 -1.87428e-09
4.49598e-09 -4.97773e-06 3.57099e-07
1.17375e-08 -7.82661e-06 5.65424e-07
5.64396e-06 9.48891e-09 8.73926e-09
4.14777e-06 1.76586e-08 -1.70776e-07
-1.68515e-08 -1.64857e-05 1.13818e-06
4.49234e-06 1.93295e-08 -1.21672e-07
7.66256e-09 -1.53541e-05 1.06056e-06
6.16172e-15 1.92544e-11 -1.39186e-12
1.94194e-11 -8.2384e-07 5.94758e-08
6.03384e-10 -1.64892e-06 1.19128e-07
1.74725e-09 -2.4755e-06 1.79335e-07
8.64272e-10 -3.3037e-06 2.38831e-07
2.5108e-09 -4.13494e-06 2.98054e-07
8.55693e-09 -5.84141e-06 4.23048e-07
1.03928e-08 -6.77531e-06 4.90783e-07
1.85375e-08 -9.04567e-06 6.47736e-07
1.64599e-08 -1.04821e-05 7.55292e-07
1.30473e-08 -1.21148e-05 8.7952e-07
2.76299e-08 -1.38051e-05 9.44166e-07
1.44209e-08 1.09541e-05 -6.15439e-07
1.28149e-08 1.10152e-05 -6.34473e-07
4.00531e-06 -2.04406e-08 -4.91115e-07
4.08232e-06 -2.0169e-08 -4.92739e-07
6.38156e-09 1.11103e-05 -6.58441e-07
1.8422e-09 1.12305e-05 -6.82884e-07
4.20347e-06 -2.16127e-08 -4.97414e-07
-1.07167e-08 1.18054e-05 -6.27161e-07
-2.63056e-09 1.13689e-05 -7.03536e-07
4.28871e-06 -2.23802e-08 -4.96353e-07
-1.30537e-08 1.18504e-05 -6.41588e-07
-1.08756e-08 1.15178e-05 -7.18471e-07
4.36488e-06 -2.42621e-08 -4.92752e-07
-1.56565e-08 1.19301e-05 -6.53327e-07
-1.93285e-08 1.16694e-05 -7.27197e-07
4.37672e-06 -2.44538e-08 -4.80652e-07
3.92068e-06 -2.10603e-08 -6.70498e-07
-2.12804e-08 1.20285e-05 -6.62595e-07
-2.62169e-08 1.18136e-05 -7.39166e-07
4.35626e-06 -2.57648e-08 -4.65451e-07
4.54514e-06 -2.45254e-08 -1.58258e-08
-3.82801e-09 1.53566e-05 -1.09076e-06
2.73382e-08 1.62697e-05 -1.15781e-06
4.77221e-06 -2.5458e-08 -1.6729e-08
4.21266e-09 1.52288e-05 -1.07889e-06
3.54987e-08 1.61433e-05 -1.15097e-06
4.66539e-06 -2.17755e-08 -1.05181e-07
4.95713e-06 -2.40452e-08 -1.48119e-08
5.24062e-09 1.50929e-05 -1.07685e-06
3.58428e-08 1.60088e-05 -1.15418e-06
5.15974e-06 -2.22391e-08 -1.58123e-08
4.83979e-06 -2.03879e-08 -1.08967e-07
2.86963e-08 1.58658e-05 -1.14899e-06
1.83259e-09 1.49442e-05 -1.07532e-06
5.32987e-06 -2.14482e-08 -1.61619e-08
4.98215e-06 -1.92026e-08 -1.13627e-07
-4.31454e-09 1.47865e-05 -1.0653e-06
2.13974e-08 1.57028e-05 -1.15162e-06
-2.48154e-08 1.31214e-05 -9.27859e-07
5.4603e-06 -2.10031e-08 -1.77308e-08
5.08815e-06 -1.82979e-08 -1.1845e-07
4.73181e-06 -1.53489e-08 -2.31708e-07
-2.12209e-08 1.32723e-05 -9.43115e-07
4.64113e-06 -1.65982e-08 -2.26804e-07
-1.97162e-08 1.34162e-05 -9.49583e-07
4.52154e-06 -1.81405e-08 -2.18197e-07
-2.12666e-08 1.35488e-05 -9.55957e-07
4.50273e-06 -2.41358e-08 -1.00485e-07
4.37066e-06 -1.96686e-08 -2.13212e-07
-2.8801e-08 1.36738e-05 -9.71552e-07
4.30095e-06 -2.33426e-08 -9.40908e-08
4.2276e-06 -2.20937e-08 -2.0335e-07
-1.28853e-08 1.54844e-05 -1.10318e-06
1.82874e-08 1.63941e-05 -1.17085e-06
4.28703e-06 -2.17595e-08 -1.19946e-08
-4.7738e-08 1.38008e-05 -9.75734e-07
4.50855e-06 -2.06743e-08 1.76504e-07
4.69902e-06 -2.09887e-08 1.27906e-07
4.87321e-06 -2.02528e-08 6.7106e-08
5.02615e-06 -2.15811e-08 4.10497e-08
-1.0486e-08 1.6277e-05 -1.15023e-06
1.24151e-08 1.52558e-05 -1.0705e-06
3.16369e-08 1.3717e-05 -9.56137e-07
4.79573e-06 -2.26617e-08 1.92857e-07
5.00312e-06 -2.30998e-08 1.41787e-07
5.19056e-06 -2.24022e-08 7.78931e-08
5.3526e-06 -2.4519e-08 5.07214e-08
-6.64832e-09 1.6157e-05 -1.15348e-06
1.70412e-08 1.5143e-05 -1.07885e-06
3.57578e-08 1.3617e-05 -9.65956e-07
5.05416e-06 -2.30132e-08 2.08093e-07
5.28084e-06 -2.28414e-08 1.50826e-07
5.48568e-06 -2.28043e-08 8.86004e-08
5.6598e-06 -2.52456e-08 6.46192e-08
-3.04584e-09 1.60486e-05 -1.14657e-06
2.04525e-08 1.5043e-05 -1.07566e-06
3.88575e-08 1.35274e-05 -9.65913e-07
5.26775e-06 -2.15267e-08 2.20687e-07
5.51289e-06 -2.14123e-08 1.6318e-07
5.73287e-06 -2.05907e-08 9.81246e-08
5.91839e-06 -2.24935e-08 8.05818e-08
-6.35384e-10 1.5926e-05 -1.14565e-06
2.14156e-08 1.4934e-05 -1.07474e-06
3.95369e-08 1.34304e-05 -9.67613e-07
5.50964e-06 -2.03173e-08 2.34716e-07
5.7835e-06 -2.04013e-08 1.76886e-07
6.03049e-06 -1.97534e-08 1.10768e-07
6.23851e-06 -2.11266e-08 9.80336e-08
-4.10837e-11 1.5791e-05 -1.14061e-06
2.06737e-08 1.48098e-05 -1.0737e-06
3.7759e-08 1.33198e-05 -9.70316e-07
5.71863e-06 -1.91251e-08 2.42846e-07
6.02376e-06 -1.95645e-08 1.872e-07
6.30153e-06 -1.92596e-08 1.22458e-07
6.53662e-06 -1.94818e-08 1.1574e-07
-4.0774e-10 1.56387e-05 -1.13626e-06
1.91118e-08 1.46679e-05 -1.07339e-06
3.52937e-08 1.31921e-05 -9.73609e-07
5.88679e-06 -1.8436e-08 2.47612e-07
6.2238e-06 -1.92304e-08 1.94834e-07
6.53473e-06 -1.93853e-08 1.32012e-07
6.8007e-06 -1.72871e-08 1.31414e-07
-5.79142e-10 1.46127e-05 -1.04635e-06
2.2768e-08 1.55257e-05 -1.13397e-06
-1.92088e-08 1.29576e-05 -9.07768e-07
5.50427e-06 -2.11003e-08 -2.1832e-08
5.11703e-06 -1.78575e-08 -1.23925e-07
4.75424e-06 -1.44908e-08 -2.39145e-07
1.1875e-08 1.44311e-05 -1.01522e-06
3.33359e-08 1.53371e-05 -1.10064e-06
-5.89697e-09 1.27902e-05 -8.79384e-07
5.47543e-06 -2.20972e-08 -2.78649e-08
5.0859e-06 -1.82708e-08 -1.30004e-07
4.73016e-06 -1.43283e-08 -2.46011e-07
2.28709e-08 1.42551e-05 -9.87091e-07
4.24747e-08 1.51478e-05 -1.06966e-06
6.09199e-09 1.26337e-05 -8.53401e-07
5.32009e-06 -1.58984e-08 -3.37363e-08
4.94771e-06 -1.21527e-08 -1.33666e-07
4.61936e-06 -8.33419e-09 -2.48752e-07
4.73668e-08 1.4967e-05 -1.05254e-06
3.0354e-08 1.4091e-05 -9.74073e-07
1.38147e-08 1.24961e-05 -8.43902e-07
5.10282e-06 -1.16671e-08 -3.72831e-08
4.76769e-06 -7.926e-09 -1.34136e-07
4.48286e-06 -4.23283e-09 -2.4982e-07
4.79643e-08 1.47995e-05 -1.04001e-06
3.28251e-08 1.395e-05 -9.6241e-07
1.7463e-08 1.23849e-05 -8.34884e-07
4.7733e-06 -9.08596e-09 -4.07659e-08
4.50295e-06 -5.32825e-09 -1.32422e-07
4.29005e-06 -1.81496e-09 -2.45013e-07
4.5752e-08 1.46596e-05 -1.02634e-06
3.30993e-08 1.38421e-05 -9.50905e-07
1.95898e-08 1.231e-05 -8.26643e-07
4.43651e-06 -8.40007e-09 -4.40295e-08
4.25343e-06 -4.64783e-09 -1.31312e-07
4.13006e-06 -1.04435e-09 -2.41715e-07
3.96093e-09 1.5467e-05 -1.12206e-06
2.06342e-08 1.45065e-05 -1.06334e-06
3.29827e-08 1.30508e-05 -9.65535e-07
5.96125e-06 -1.85529e-08 2.45748e-07
6.32654e-06 -2.00623e-08 1.95678e-07
6.66978e-06 -2.09344e-08 1.35161e-07
6.96689e-06 -1.55803e-08 1.44776e-07
1.27837e-08 1.52764e-05 -1.10296e-06
2.5407e-08 1.43243e-05 -1.04634e-06
3.41448e-08 1.28834e-05 -9.52378e-07
5.95077e-06 -1.97081e-08 2.39396e-07
6.33542e-06 -2.19411e-08 1.91992e-07
6.70448e-06 -2.36858e-08 1.33606e-07
7.03004e-06 -1.50823e-08 1.51265e-07
2.0087e-08 1.50924e-05 -1.08404e-06
2.90026e-08 1.41429e-05 -1.02902e-06
3.437e-08 1.27117e-05 -9.39704e-07
5.79574e-06 -1.62607e-08 2.39164e-07
6.18564e-06 -1.83494e-08 1.93323e-07
6.56887e-06 -1.8597e-08 1.33875e-07
6.91749e-06 -8.75398e-09 1.57012e-07
2.44353e-08 1.49215e-05 -1.07322e-06
3.07493e-08 1.39661e-05 -1.01752e-06
3.51783e-08 1.25327e-05 -9.27627e-07
5.55673e-06 -1.42593e-08 2.34826e-07
5.93245e-06 -1.57384e-08 1.90535e-07
6.67315e-06 -5.10617e-09 1.54776e-07
6.31464e-06 -1.67943e-08 1.36125e-07
2.68654e-08 1.47523e-05 -1.06981e-06
3.15921e-08 1.3785e-05 -1.00784e-06
3.4445e-08 1.23492e-05 -9.13508e-07
5.17472e-06 -1.37188e-08 2.21888e-07
5.51088e-06 -1.47343e-08 1.79697e-07
5.8677e-06 -1.40003e-08 1.25185e-07
6.22239e-06 -5.10425e-09 1.50617e-07
2.81886e-08 1.45967e-05 -1.06868e-06
3.16268e-08 1.36106e-05 -9.97689e-07
3.0608e-08 1.21701e-05 -9.10006e-07
4.75797e-06 -1.49953e-08 2.0588e-07
5.02783e-06 -1.54474e-08 1.6542e-07
5.33432e-06 -1.43088e-08 1.14157e-07
5.65713e-06 -4.65579e-09 1.31279e-07
2.54382e-08 1.09373e-05 -6.02161e-07
4.02144e-09 1.17979e-05 -6.11176e-07
4.13877e-06 -2.22192e-08 -5.15727e-07
4.09124e-06 -2.32056e-08 -7.1374e-07
4.7084e-08 1.09529e-05 -6.00928e-07
2.84888e-08 1.18109e-05 -5.98619e-07
4.26096e-06 -2.38142e-08 -5.38763e-07
4.26637e-06 -2.64619e-08 -7.56261e-07
6.77701e-08 1.10059e-05 -6.02049e-07
5.34086e-08 1.18531e-05 -5.84566e-07
4.57385e-06 -1.73175e-08 -5.84669e-07
4.60361e-06 -1.97309e-08 -8.24477e-07
8.37181e-08 1.10869e-05 -6.07646e-07
7.60583e-08 1.19144e-05 -5.79475e-07
5.14048e-06 -8.78453e-09 -6.68274e-07
5.14779e-06 -1.29733e-08 -9.2893e-07
9.73021e-08 1.11804e-05 -6.2262e-07
8.88788e-08 1.1967e-05 -6.07108e-07
6.04754e-06 -3.99823e-09 -7.9306e-07
5.9657e-06 -5.23321e-09 -1.08488e-06
9.93259e-08 1.12582e-05 -6.51475e-07
8.6547e-08 1.19785e-05 -6.75338e-07
1.22706e-07 1.75681e-05 -8.93072e-07
7.29242e-06 -6.84606e-10 -9.56677e-07
7.03765e-06 6.77252e-09 -1.29334e-06
9.3107e-08 1.12844e-05 -7.01161e-07
7.44195e-08 1.19091e-05 -7.38013e-07
9.23207e-08 1.73829e-05 -9.92631e-07
1.22537e-07 1.76504e-05 -8.21289e-07
9.53125e-08 1.76677e-05 -7.80192e-07
-5.1279e-08 2.60835e-05 -1.7931e-06
-9.25265e-08 2.7459e-05 -1.95682e-06
8.92964e-06 7.02318e-09 -1.1755e-06
8.40259e-06 2.22766e-08 -1.57576e-06
7.39833e-08 1.12106e-05 -7.85547e-07
5.81676e-08 1.17246e-05 -8.27173e-07
5.44195e-08 1.70835e-05 -1.16355e-06
1.08776e-05 1.97129e-08 -1.43301e-06
9.97587e-06 3.06617e-08 -1.89182e-06
8.8436e-06 -5.39564e-09 -2.17681e-06
4.45524e-08 1.09777e-05 -9.03869e-07
2.61936e-08 1.13679e-05 -9.43387e-07
-4.29193e-10 1.65965e-05 -1.39036e-06
1.30712e-05 5.10865e-08 -1.73826e-06
1.17008e-05 5.88411e-08 -2.24123e-06
1.01235e-05 3.9012e-08 -2.51415e-06
1.22629e-08 1.05113e-05 -9.68406e-07
3.41558e-09 1.07796e-05 -9.99699e-07
-2.95512e-08 1.58815e-05 -1.44872e-06
1.53117e-05 9.33419e-08 -2.06501e-06
1.34094e-05 1.1381e-07 -2.5979e-06
1.13453e-05 1.03645e-07 -2.88094e-06
-1.09019e-08 9.77312e-06 -9.62074e-07
-1.79832e-08 9.92062e-06 -9.86854e-07
-5.43723e-08 1.49391e-05 -1.45876e-06
1.73042e-05 1.38821e-07 -2.38795e-06
1.48334e-05 1.56555e-07 -2.91066e-06
1.22821e-05 1.37567e-07 -3.15768e-06
-2.36317e-08 8.73283e-06 -8.76095e-07
-3.07958e-08 8.78157e-06 -8.90997e-07
-6.39938e-08 1.37547e-05 -1.37707e-06
1.87031e-05 1.8551e-07 -2.68367e-06
1.56942e-05 2.0501e-07 -3.14714e-06
1.27232e-05 1.91257e-07 -3.33475e-06
-2.25209e-08 7.37073e-06 -7.22266e-07
-2.81448e-08 7.36422e-06 -7.26882e-07
-5.44827e-08 1.23353e-05 -1.19623e-06
3.75625e-08 1.37787e-05 -9.43247e-07
5.09003e-08 1.45559e-05 -1.0005e-06
2.90654e-08 1.22776e-05 -8.13571e-07
4.36109e-06 -1.05407e-08 -5.18425e-08
4.25967e-06 -6.50864e-09 -1.39006e-07
4.20956e-06 -2.61846e-09 -2.52873e-07
5.62402e-08 1.37426e-05 -8.96181e-07
6.79018e-08 1.44863e-05 -9.33744e-07
4.29597e-08 1.22805e-05 -8.09631e-07
4.20605e-06 -1.17608e-08 -1.40496e-07
4.19617e-06 -1.65507e-08 -4.80263e-08
4.25762e-06 -6.18064e-09 -2.62896e-07
7.5764e-08 1.37603e-05 -8.19343e-07
8.58517e-08 1.44718e-05 -8.37501e-07
6.23402e-08 1.23227e-05 -7.53085e-07
4.37523e-06 -8.84332e-09 -1.36653e-07
4.25309e-06 -1.36927e-08 -3.81515e-08
4.51699e-06 -3.37953e-09 -2.70872e-07
9.47187e-08 1.38343e-05 -7.33265e-07
1.02148e-07 1.45195e-05 -7.45995e-07
8.23658e-08 1.24106e-05 -6.76283e-07
4.87463e-06 -7.31802e-09 -1.42569e-07
4.66122e-06 -1.28362e-08 -2.90889e-08
5.07478e-06 -1.45462e-09 -2.98513e-07
1.05481e-07 1.39559e-05 -7.02022e-07
1.10978e-07 1.46263e-05 -7.08131e-07
9.40222e-08 1.25304e-05 -6.52534e-07
5.82821e-06 -6.86892e-09 -1.6696e-07
5.56137e-06 -1.4044e-08 -2.6418e-08
6.03569e-06 8.22004e-10 -3.58447e-07
1.08337e-07 1.47783e-05 -7.2811e-07
9.2668e-08 1.26522e-05 -6.87753e-07
1.04207e-07 1.41039e-05 -7.3751e-07
7.0312e-06 -1.69928e-08 -2.48278e-08
7.28358e-06 -9.2236e-09 -2.08111e-07
7.42086e-06 3.90537e-10 -4.51424e-07
8.79236e-08 1.42466e-05 -8.22972e-07
8.81151e-08 1.49518e-05 -8.22591e-07
8.11117e-08 1.27427e-05 -7.72256e-07
3.63474e-08 1.44579e-05 -1.03144e-06
3.43311e-08 1.34556e-05 -9.89506e-07
3.10735e-08 1.1999e-05 -9.00631e-07
4.60161e-06 -1.92816e-08 2.02938e-07
4.79129e-06 -1.92533e-08 1.58014e-07
5.02879e-06 -1.83409e-08 1.08261e-07
5.30007e-06 -9.36475e-09 1.19889e-07
5.28844e-08 1.43435e-05 -9.60212e-07
4.67821e-08 1.33149e-05 -9.11003e-07
3.94201e-08 1.18423e-05 -8.26313e-07
4.32028e-06 -2.51448e-08 1.97406e-07
4.39752e-06 -2.45585e-08 1.49875e-07
4.53443e-06 -2.26668e-08 1.00937e-07
4.72524e-06 -1.55481e-08 1.05644e-07
6.77928e-08 1.4308e-05 -8.56323e-07
5.79643e-08 1.32455e-05 -8.1402e-07
4.68778e-08 1.17438e-05 -7.39907e-07
4.25561e-06 -2.22228e-08 2.03399e-07
4.20216e-06 -2.07118e-08 1.5447e-07
4.21575e-06 -1.78858e-08 1.07491e-07
4.30333e-06 -1.32549e-08 9.49092e-08
8.45533e-08 1.43477e-05 -7.11592e-07
7.08139e-08 1.32463e-05 -6.86835e-07
5.55255e-08 1.17063e-05 -6.30138e-07
4.559e-06 -2.39106e-08 2.2537e-07
4.37079e-06 -2.01225e-08 1.68658e-07
4.24983e-06 -1.6969e-08 1.20766e-07
4.21647e-06 -1.34224e-08 9.18207e-08
9.66503e-08 1.44501e-05 -6.31696e-07
7.93627e-08 1.3311e-05 -6.11985e-07
6.04347e-08 1.17311e-05 -5.65813e-07
5.39032e-06 -2.91432e-08 2.70536e-07
5.07393e-06 -2.30574e-08 2.0409e-07
4.81328e-06 -1.80098e-08 1.48667e-07
4.64828e-06 -1.66182e-08 9.83973e-08
1.00242e-07 1.46057e-05 -6.37154e-07
8.11518e-08 1.34367e-05 -6.13424e-07
6.02333e-08 1.1819e-05 -5.67042e-07
6.86223e-06 -4.13632e-08 3.45152e-07
6.45455e-06 -3.12649e-08 2.68133e-07
6.07829e-06 -2.28168e-08 2.02765e-07
5.79984e-06 -2.28745e-08 1.14112e-07
9.27921e-08 1.47933e-05 -7.41498e-07
7.23068e-08 1.36112e-05 -7.01038e-07
5.16901e-08 1.196e-05 -6.47923e-07
9.3337e-06 -9.93292e-09 -2.80227e-07
9.18531e-06 -2.33445e-08 -2.97201e-08
9.30222e-06 2.08217e-09 -5.99323e-07
6.10547e-08 1.43594e-05 -1.02713e-06
5.68619e-08 1.51273e-05 -1.04174e-06
5.89077e-08 1.27679e-05 -9.49747e-07
1.19283e-05 -8.96205e-09 -4.05133e-07
1.20009e-05 -2.92473e-08 -5.68633e-08
1.16078e-05 7.51871e-09 -8.25147e-07
1.42981e-08 1.43766e-05 -1.34271e-06
5.30668e-09 1.52416e-05 -1.39609e-06
1.71418e-08 1.2663e-05 -1.21569e-06
1.50082e-05 1.13437e-08 -5.37914e-07
1.54212e-05 -1.80944e-08 -1.05382e-07
1.42807e-05 3.34732e-08 -1.04453e-06
-1.12613e-08 1.23503e-05 -1.36118e-06
-2.28608e-08 1.42093e-05 -1.55211e-06
-3.73695e-08 1.52077e-05 -1.63926e-06
1.71001e-05 9.75472e-08 -1.1913e-06
1.83353e-05 6.12706e-08 -6.33052e-07
1.91982e-05 2.13126e-08 -1.57807e-07
-7.54021e-08 1.49907e-05 -1.78195e-06
-3.42612e-08 1.17789e-05 -1.41572e-06
-5.52023e-08 1.38115e-05 -1.66421e-06
1.97432e-05 1.733e-07 -1.37843e-06
2.15936e-05 1.29085e-07 -7.78665e-07
2.30334e-05 7.67876e-08 -2.65505e-07
-4.19432e-08 1.0902e-05 -1.34857e-06
-7.29671e-08 1.31245e-05 -1.65486e-06
-9.53831e-08 1.4503e-05 -1.80839e-06
2.43203e-05 2.11815e-07 -9.67075e-07
2.18041e-05 2.41286e-07 -1.55296e-06
2.64291e-05 1.55604e-07 -4.56739e-07
-1.15025e-07 1.3684e-05 -1.73787e-06
-3.49133e-08 9.67623e-06 -1.14412e-06
-7.43098e-08 1.20927e-05 -1.49699e-06
9.10586e-06 -6.07976e-08 4.38524e-07
8.66095e-06 -4.91592e-08 3.67492e-07
8.2053e-06 -3.2669e-08 2.98057e-07
7.82816e-06 -3.75363e-08 1.46587e-07
7.13903e-08 1.50047e-05 -1.02071e-06
5.12983e-08 1.38199e-05 -9.59713e-07
3.05353e-08 1.21538e-05 -8.68542e-07
1.21355e-05 -9.65275e-08 5.25649e-07
1.17422e-05 -7.95539e-08 4.84412e-07
1.12807e-05 -5.39534e-08 4.34833e-07
1.08393e-05 -6.91978e-08 2.537e-07
2.6736e-08 1.51921e-05 -1.51237e-06
9.08523e-09 1.40343e-05 -1.41811e-06
-7.58076e-09 1.23683e-05 -1.27744e-06
1.59115e-05 -1.27307e-07 6.83931e-07
1.56632e-05 -9.78657e-08 6.34014e-07
1.52781e-05 -7.22487e-08 5.89162e-07
1.48807e-05 -8.3988e-08 4.40164e-07
-6.3162e-09 1.52729e-05 -1.82058e-06
-2.29132e-08 1.41871e-05 -1.70043e-06
-3.66663e-08 1.25465e-05 -1.52446e-06
2.01879e-05 -1.17524e-07 9.82231e-07
2.0186e-05 -8.9692e-08 8.7367e-07
1.99632e-05 -5.67358e-08 7.56256e-07
1.96893e-05 -7.84245e-08 5.96592e-07
-3.81522e-08 1.52201e-05 -2.05096e-06
-5.3397e-08 1.42345e-05 -1.92387e-06
-6.38843e-08 1.26516e-05 -1.72072e-06
2.51174e-05 -5.29838e-08 9.45717e-07
2.46805e-05 -8.70265e-08 1.32175e-06
2.5056e-05 -6.89197e-08 1.14317e-06
2.51036e-05 -4.24638e-08 7.919e-07
-7.9015e-08 1.4117e-05 -2.0344e-06
-8.70555e-08 1.263e-05 -1.82179e-06
-6.11662e-08 1.49561e-05 -2.13606e-06
3.02084e-05 -6.58543e-08 1.16456e-06
2.88567e-05 -7.30519e-08 1.66784e-06
2.97359e-05 -6.8655e-08 1.42442e-06
3.05425e-05 -3.0404e-08 9.57218e-07
-1.03477e-07 1.23748e-05 -1.80282e-06
-7.07936e-08 1.43469e-05 -2.02949e-06
-9.00583e-08 1.37021e-05 -1.956e-06
5.1405e-06 -1.75441e-08 4.385e-08
5.25648e-06 -1.5992e-08 1.40568e-08
5.3596e-06 -1.41717e-08 -1.37019e-08
1.56386e-08 1.20324e-05 -8.839e-07
1.91978e-08 1.04066e-05 -7.61383e-07
2.04145e-08 8.97823e-06 -6.52726e-07
5.48024e-06 -2.01484e-08 4.84299e-08
5.59933e-06 -1.83572e-08 1.83042e-08
5.70264e-06 -1.62775e-08 -9.59036e-09
1.76795e-08 1.19413e-05 -8.87787e-07
2.03444e-08 1.03271e-05 -7.63916e-07
2.08688e-08 8.90876e-06 -6.54044e-07
5.80548e-06 -2.12261e-08 5.65595e-08
5.93094e-06 -1.91625e-08 2.54402e-08
6.03718e-06 -1.67778e-08 -3.29976e-09
2.04309e-08 1.18726e-05 -8.82095e-07
2.20892e-08 1.02671e-05 -7.60453e-07
2.18751e-08 8.85612e-06 -6.52133e-07
6.08411e-06 -1.99851e-08 6.80751e-08
6.21589e-06 -1.76103e-08 3.68775e-08
6.32478e-06 -1.48838e-08 8.17592e-09
2.26581e-08 1.17963e-05 -8.79487e-07
2.33559e-08 1.02015e-05 -7.59486e-07
2.24467e-08 8.7998e-06 -6.52299e-07
6.43542e-06 -1.91998e-08 8.10293e-08
6.584e-06 -1.65937e-08 4.94156e-08
6.70494e-06 -1.35949e-08 2.03164e-08
2.47527e-08 1.17055e-05 -8.77623e-07
2.45367e-08 1.01239e-05 -7.58773e-07
2.29802e-08 8.73408e-06 -6.52496e-07
6.77067e-06 -1.86666e-08 9.4491e-08
6.94137e-06 -1.59812e-08 6.2581e-08
7.07933e-06 -1.28627e-08 3.30921e-08
2.66651e-08 1.15993e-05 -8.76488e-07
2.51993e-08 1.00332e-05 -7.59104e-07
2.27665e-08 8.6578e-06 -6.54176e-07
7.07805e-06 -1.85466e-08 1.06756e-07
7.27722e-06 -1.60832e-08 7.55747e-08
7.43871e-06 -1.31578e-08 4.66769e-08
5.4786e-06 -1.1441e-08 3.25531e-08
5.56477e-06 -1.06314e-08 1.24674e-08
1.42221e-08 7.76585e-06 -5.67618e-07
1.15551e-08 6.72195e-06 -4.90756e-07
9.26944e-09 5.79291e-06 -4.23037e-07
5.82617e-06 -1.27338e-08 3.73253e-08
5.91155e-06 -1.13632e-08 1.65332e-08
5.98799e-06 -9.85523e-09 -3.64174e-09
1.55939e-08 7.7044e-06 -5.66051e-07
1.28881e-08 6.66452e-06 -4.91681e-07
1.00421e-08 5.74125e-06 -4.23867e-07
6.16908e-06 -1.30861e-08 4.15988e-08
6.25457e-06 -1.14798e-08 1.9906e-08
6.32985e-06 -9.72461e-09 -1.08717e-09
1.71809e-08 7.65996e-06 -5.62261e-07
1.38386e-08 6.62448e-06 -4.88069e-07
1.05216e-08 5.70504e-06 -4.20355e-07
6.46465e-06 -1.15993e-08 4.50466e-08
6.54818e-06 -1.03353e-08 2.32743e-08
6.62098e-06 -8.25565e-09 1.88813e-09
1.85092e-08 7.61313e-06 -5.60984e-07
1.46249e-08 6.58326e-06 -4.86514e-07
1.09065e-08 5.66853e-06 -4.18538e-07
6.86077e-06 -1.08068e-08 5.05666e-08
6.95035e-06 -9.37848e-09 2.76419e-08
7.02628e-06 -7.03331e-09 5.29232e-09
1.95901e-08 7.55915e-06 -5.60921e-07
1.52182e-08 6.53685e-06 -4.85895e-07
1.11466e-08 5.62843e-06 -4.1748e-07
7.25583e-06 -9.87072e-09 5.66803e-08
7.35521e-06 -8.4372e-09 3.24649e-08
7.4372e-06 -5.97768e-09 8.98623e-09
2.03834e-08 7.49667e-06 -5.6187e-07
1.51102e-08 6.48715e-06 -4.83637e-07
1.10429e-08 5.5839e-06 -4.17427e-07
7.64096e-06 -9.18902e-09 6.28292e-08
7.75581e-06 -8.04882e-09 3.75222e-08
7.84877e-06 -5.77858e-09 1.31181e-08
2.85275e-08 1.14728e-05 -8.70605e-07
2.54667e-08 9.92462e-06 -7.55916e-07
2.1891e-08 8.56647e-06 -6.53688e-07
7.29351e-06 -1.79262e-08 1.14914e-07
7.5252e-06 -1.69501e-08 8.65082e-08
7.71591e-06 -1.45287e-08 5.85844e-08
3.06295e-08 1.1323e-05 -8.58196e-07
2.47882e-08 9.79923e-06 -7.46976e-07
2.06042e-08 8.4562e-06 -6.49874e-07