# vtk DataFile Version 3.0
vtk output
ASCII
DATASET POLYDATA
POINTS 1212 float
0.159995 0.0650302 -0.00322007
0.179996 0.0650344 -0.00332359
0.199997 0.0650386 -0.00339818
0.219997 0.0650429 -0.00345217
0.239998 0.0650472 -0.00349157
0.119994 0.0650168 -0.00288958
0.139994 0.0650272 -0.00307623
0.149996 0.0600233 -0.00298252
0.169997 0.0600253 -0.00309436
0.189997 0.0600272 -0.00317454
0.209998 0.0600291 -0.00323181
0.229999 0.0600308 -0.00327295
0.0999943 0.0650125 -0.00264495
0.109996 0.0600087 -0.00263283
0.139997 0.0550193 -0.00270965
0.159998 0.0550198 -0.00282884
0.179998 0.05502 -0.00291427
0.199999 0.05502 -0.0029747
0.219999 0.0550197 -0.00301744
0.24 0.0550191 -0.00304769
0.129996 0.0600228 -0.00282811
0.0799954 0.0650115 -0.00234264
0.119997 0.0550004 -0.00255494
0.0899963 0.0600079 -0.00237819
0.220001 0.0450119 -0.0024997
0.240001 0.0450102 -0.00252219
0.149999 0.0500184 -0.00255198
0.17 0.050018 -0.00264248
0.19 0.0500174 -0.00270642
0.21 0.0500164 -0.00275141
0.23 0.050015 -0.00278335
0.259998 0.0650472 -0.00352516
0.279999 0.0650499 -0.0035556
0.299999 0.0650523 -0.00358217
0.319999 0.0650543 -0.00360553
0.339999 0.065056 -0.00362593
0.359999 0.0650573 -0.00364344
0.38 0.0650583 -0.00365805
0.4 0.0650588 -0.00366975
0.42 0.065059 -0.00367854
0.440001 0.0650589 -0.00368442
0.460001 0.0650583 -0.00368737
0.480002 0.0650574 -0.00368731
0.39 0.0600505 -0.00344129
0.41 0.0600508 -0.00345031
0.430001 0.0600507 -0.00345671
0.450001 0.0600503 -0.00346049
0.470002 0.0600495 -0.00346159
0.490002 0.0600484 -0.00345994
0.3 0.0550381 -0.00311786
0.32 0.0550397 -0.00313605
0.34 0.0550411 -0.00315199
0.36 0.0550422 -0.00316566
0.380001 0.055043 -0.00317705
0.400001 0.0550435 -0.00318611
0.420001 0.0550437 -0.00319285
0.440001 0.0550436 -0.00319725
0.460001 0.0550432 -0.00319929
0.480002 0.0550425 -0.00319892
0.249999 0.0600387 -0.00330325
0.269999 0.0600412 -0.00333221
0.29 0.0600435 -0.00335722
0.31 0.0600455 -0.00337921
0.33 0.0600472 -0.00339853
0.35 0.0600487 -0.0034153
0.37 0.0600498 -0.0034295
0.26 0.0550313 -0.00307516
0.280001 0.0550337 -0.00309825
0.250001 0.0500246 -0.00280776
0.270001 0.0500268 -0.00282908
0.290001 0.0500288 -0.00284754
0.310001 0.0500308 -0.00286384
0.330001 0.0500325 -0.00287823
0.350001 0.0500342 -0.00289074
0.370001 0.0500356 -0.00290132
0.390001 0.0500369 -0.00290993
0.410001 0.0500381 -0.00291655
0.430001 0.050039 -0.00292115
0.450001 0.0500398 -0.00292373
0.470001 0.0500404 -0.00292427
0.49 0.0500408 -0.00292269
0.5 0.065056 -0.00368413
0.260002 0.0450193 -0.00254415
0.280002 0.0450213 -0.00256068
0.300002 0.0450232 -0.00257522
0.320002 0.0450251 -0.00258812
0.340002 0.045027 -0.00259947
0.360001 0.0450288 -0.00260921
0.380001 0.0450305 -0.00261728
0.400001 0.0450321 -0.00262365
0.420001 0.0450337 -0.00262828
0.44 0.0450352 -0.00263118
0.46 0.0450366 -0.00263233
0.479999 0.0450379 -0.00263169
0.499999 0.0550412 -0.00319597
0.519998 0.0650571 -0.00368706
0.539999 0.0650581 -0.00368711
0.559999 0.0650587 -0.00368419
0.58 0.0650589 -0.00367833
0.6 0.0650587 -0.00366958
0.62 0.0650582 -0.00365792
0.640001 0.0650573 -0.00364335
0.660001 0.065056 -0.00362589
0.680001 0.0650543 -0.00360552
0.700001 0.0650523 -0.00358219
0.720001 0.0650499 -0.00355565
0.740002 0.0650473 -0.00352523
0.509998 0.0600481 -0.00345976
0.529998 0.0600493 -0.00346138
0.549999 0.0600501 -0.00346027
0.569999 0.0600506 -0.00345651
0.59 0.0600507 -0.00345014
0.61 0.0600504 -0.00344115
0.519998 0.0550423 -0.00319877
0.539999 0.055043 -0.00319911
0.559999 0.0550435 -0.00319706
0.579999 0.0550436 -0.00319268
0.599999 0.0550435 -0.00318597
0.619999 0.055043 -0.00317693
0.64 0.0550422 -0.00316558
0.66 0.0550411 -0.00315194
0.68 0.0550397 -0.00313604
0.7 0.0550381 -0.00311788
0.63 0.0600497 -0.0034294
0.65 0.0600486 -0.00341524
0.67 0.0600472 -0.00339851
0.69 0.0600455 -0.00337921
0.71 0.0600435 -0.00335726
0.730001 0.0600412 -0.00333227
0.750001 0.0600387 -0.00330333
0.719999 0.0550337 -0.00309824
0.74 0.0550313 -0.00307519
0.51 0.0500415 -0.00292264
0.53 0.050041 -0.00292413
0.549999 0.0500403 -0.00292356
0.569999 0.0500395 -0.00292095
0.589999 0.0500384 -0.00291635
0.609999 0.0500372 -0.00290976
0.629999 0.0500359 -0.00290117
0.649999 0.0500343 -0.00289062
0.669999 0.0500326 -0.00287814
0.689999 0.0500308 -0.00286378
0.709999 0.0500288 -0.00284752
0.729999 0.0500267 -0.00282909
0.749999 0.0500245 -0.0028078
0.500001 0.0450409 -0.00263145
0.520001 0.0450393 -0.00263317
0.54 0.0450377 -0.00263323
0.56 0.0450361 -0.00263166
0.579999 0.0450345 -0.00262846
0.599999 0.0450328 -0.00262363
0.619998 0.0450312 -0.00261713
0.639999 0.0450277 -0.00260785
0.659999 0.0450272 -0.00259841
0.679998 0.0450264 -0.00258707
0.699998 0.0450252 -0.00257401
0.719998 0.0450236 -0.00255927
0.739998 0.0450218 -0.00254256
0.760002 0.0650558 -0.00348577
0.780003 0.0650499 -0.00344704
0.800004 0.0650441 -0.00339384
0.820004 0.0650385 -0.0033201
0.840005 0.0650331 -0.00321747
0.860006 0.0650289 -0.00307452
0.770001 0.0600306 -0.00327278
0.790002 0.060029 -0.00323165
0.810003 0.0600271 -0.0031744
0.830003 0.0600252 -0.00309424
0.850004 0.0600232 -0.00298242
0.880006 0.0650174 -0.00288872
0.76 0.0550192 -0.00304742
0.780001 0.0550199 -0.00301717
0.800001 0.0550202 -0.00297443
0.820002 0.0550202 -0.002914
0.840002 0.05502 -0.00282857
0.860003 0.0550196 -0.00270939
0.870004 0.0600231 -0.00282785
0.900006 0.0650124 -0.00264486
0.890004 0.0600088 -0.00263274
0.759999 0.045002 -0.00252324
0.779999 0.0450087 -0.00250175
0.769999 0.0500088 -0.00278505
0.79 0.0500147 -0.00275352
0.81 0.050019 -0.00270807
0.83 0.0500219 -0.00264316
0.850001 0.0500233 -0.0025515
0.920005 0.0650105 -0.00234327
0.880003 0.0550005 -0.00255486
0.910004 0.060008 -0.0023781
0.109992 0.0700242 -0.00289811
0.0899929 0.0700174 -0.00261026
0.119991 0.0750318 -0.00310299
0.099991 0.0750253 -0.00283233
0.0799924 0.075019 -0.00249949
0.109989 0.0800321 -0.00303877
0.0899901 0.0800258 -0.00272268
0.0999887 0.0850322 -0.00288626
0.119988 0.0850387 -0.0031763
0.0799902 0.0850254 -0.00252982
0.0899887 0.0900314 -0.00269484
0.109988 0.0900385 -0.00302456
0.0999883 0.095036 -0.00277357
0.119988 0.0950433 -0.00306917
0.0799899 0.0950284 -0.0024117
0.0899895 0.100033 -0.00249314
0.109988 0.10004 -0.00282027
0.0999903 0.105034 -0.00246591
0.11999 0.105041 -0.00274947
0.109991 0.110035 -0.00239859
0.0699908 0.0900241 -0.00230133
0.0699925 0.0800203 -0.0023475
0.169994 0.0700412 -0.0034472
0.129992 0.0700273 -0.00312805
0.149993 0.0700323 -0.00331227
0.139991 0.0750367 -0.00332098
0.159992 0.075043 -0.00348912
0.179993 0.0750489 -0.0036124
0.129989 0.0800375 -0.00329149
0.14999 0.0800441 -0.00349539
0.169991 0.0800502 -0.00364766
0.139989 0.0850446 -0.00341058
0.15999 0.085051 -0.00359147
0.179991 0.0850568 -0.00372518
0.149988 0.0900515 -0.00350218
0.16999 0.0900577 -0.00366168
0.129988 0.0900445 -0.00328965
0.139988 0.0950497 -0.00330817
0.159989 0.0950566 -0.0034925
0.17999 0.0950626 -0.00362953
0.129988 0.100047 -0.00308415
0.149989 0.100055 -0.00329461
0.16999 0.100061 -0.00345298
0.13999 0.105048 -0.00297778
0.15999 0.105055 -0.00315286
0.179991 0.105061 -0.00328267
0.129991 0.110041 -0.00264199
0.149991 0.110048 -0.00283387
0.169992 0.110054 -0.002977
0.159994 0.115039 -0.00253624
0.179995 0.115044 -0.00264392
0.139994 0.115034 -0.00238734
0.189993 0.0700461 -0.00354984
0.209997 0.0700527 -0.00362019
0.229999 0.0700594 -0.00367119
0.199994 0.0750534 -0.00370664
0.219997 0.0750598 -0.00377176
0.239999 0.0750661 -0.00381924
0.189991 0.0800552 -0.00376433
0.209995 0.0800615 -0.00384559
0.229997 0.0800677 -0.00390571
0.199992 0.0850622 -0.00382834
0.219995 0.0850682 -0.00390049
0.239997 0.085074 -0.00395414
0.18999 0.0900628 -0.00378485
0.209993 0.0900689 -0.00387124
0.229996 0.0900746 -0.00393616
0.199992 0.0950684 -0.00373594
0.219994 0.0950745 -0.00381108
0.239996 0.0950801 -0.003868
0.18999 0.100067 -0.00357582
0.209993 0.100074 -0.00366207
0.229995 0.10008 -0.00372743
0.199993 0.105067 -0.00338304
0.219995 0.105073 -0.00345345
0.239996 0.105079 -0.0035069
0.189992 0.11006 -0.0030871
0.209995 0.110066 -0.00316271
0.229997 0.110072 -0.00321948
0.219998 0.115054 -0.00277928
0.239998 0.115059 -0.00281939
0.199996 0.115049 -0.00272494
0.249995 0.100085 -0.00377486
0.249996 0.110077 -0.00326049
0.23 0.120041 -0.00236898
0.249995 0.0900799 -0.00398465
0.21 0.120037 -0.00233231
0.249997 0.0800672 -0.00394237
0.189998 0.120033 -0.00228085
0.249998 0.07005 -0.00370036
0.27 0.0700544 -0.00374091
0.290002 0.070058 -0.00377415
0.310003 0.0700607 -0.00380079
0.259998 0.0750587 -0.00385262
0.28 0.0750627 -0.00389353
0.300001 0.0750661 -0.00392657
0.269998 0.0800676 -0.00398814
0.29 0.0800715 -0.00402773
0.310001 0.0800749 -0.0040593
0.259996 0.0850716 -0.00399686
0.279998 0.085076 -0.00404285
0.3 0.0850799 -0.0040803
0.269996 0.0900804 -0.00403512
0.289998 0.0900848 -0.00407827
0.309999 0.0900886 -0.00411301
0.259995 0.0950813 -0.00391517
0.279997 0.0950861 -0.00396284
0.299998 0.0950904 -0.00400204
0.269996 0.100087 -0.00382582
0.289997 0.100091 -0.00386888
0.309998 0.100095 -0.00390399
0.299998 0.105089 -0.00363215
0.259995 0.10508 -0.00355155
0.279997 0.105085 -0.00359566
0.269997 0.110078 -0.00330559
0.289998 0.110083 -0.00334269
0.309999 0.110086 -0.00337312
0.259998 0.11506 -0.00285355
0.279999 0.115064 -0.00288659
0.299999 0.115068 -0.00291385
0.249999 0.120042 -0.00239593
0.27 0.120045 -0.00242324
0.290001 0.120048 -0.00244563
0.310001 0.120051 -0.00246378
0.33 0.0700633 -0.00382243
0.35 0.0700655 -0.0038468
0.370001 0.0700674 -0.00386608
0.319999 0.0750694 -0.00395035
0.339999 0.0750723 -0.0039774
0.36 0.0750753 -0.00399793
0.329999 0.0800786 -0.00408675
0.349999 0.0800818 -0.00411161
0.37 0.0800851 -0.00412894
0.319998 0.0850839 -0.00411028
0.339998 0.0850875 -0.00413939
0.359999 0.085091 -0.00416085
0.329997 0.0900929 -0.00414481
0.349998 0.0900967 -0.00417082
0.369998 0.0901003 -0.00418852
0.319996 0.0950949 -0.00403564
0.339997 0.0950988 -0.00406561
0.359998 0.0951027 -0.00408785
[...]
POINT_DATA 1212
VECTORS alpha float
-4.4459e-10 1.55224e-06 -5.24576e-08
-5.58669e-10 2.10626e-06 -7.51113e-08
-6.4191e-10 2.65759e-06 -9.88055e-08
-6.46266e-10 2.9692e-06 -1.14126e-07
-5.85392e-10 3.00291e-06 -1.18645e-07
-9.38953e-10 3.0631e-06 -8.79861e-08
-4.66177e-10 1.54748e-06 -4.87104e-08
-7.80525e-05 -6.05205e-09 4.20826e-07
-8.12929e-05 -6.25028e-09 3.11623e-07
-8.31776e-05 -6.22232e-09 2.23453e-07
-8.41221e-05 -5.96598e-09 1.5815e-07
-8.44871e-05 -5.47255e-09 1.10858e-07
-2.24223e-09 7.56393e-06 -1.91743e-07
-6.60503e-05 5.89509e-09 6.33666e-07
2.64911e-10 -9.49847e-07 3.92606e-08
1.80687e-11 -6.93271e-08 3.03933e-09
-2.75671e-10 1.16262e-06 -5.32534e-08
-4.62789e-10 2.18413e-06 -1.03418e-07
-5.21723e-10 2.78547e-06 -1.35343e-07
-4.89613e-10 2.97372e-06 -1.47537e-07
-7.3061e-05 -1.78611e-09 5.39502e-07
-4.58818e-09 1.70998e-05 -3.66138e-07
1.28026e-10 -4.44346e-07 1.70381e-08
-5.69922e-05 8.44225e-09 6.84648e-07
-4.65003e-10 3.59307e-06 -1.96296e-07
-4.16668e-10 3.791e-06 -2.10464e-07
-4.90222e-05 1.46979e-09 2.06816e-07
-4.91977e-05 2.16035e-09 1.45579e-07
-4.84012e-05 2.89352e-09 9.89174e-08
-4.70321e-05 3.65933e-09 6.63556e-08
-4.54164e-05 4.45577e-09 4.42391e-08
-5.05409e-10 2.81891e-06 -1.12427e-07
-3.9747e-10 2.5055e-06 -1.01649e-07
-2.9908e-10 2.14105e-06 -8.81353e-08
-2.17498e-10 1.77956e-06 -7.41723e-08
-1.53752e-10 1.45057e-06 -6.11079e-08
-1.0579e-10 1.16523e-06 -4.95342e-08
-7.05572e-11 9.2329e-07 -3.95483e-08
-4.50932e-11 7.18829e-07 -3.09818e-08
-2.69842e-11 5.43972e-07 -2.35596e-08
-1.44457e-11 3.90953e-07 -1.69924e-08
-6.24679e-12 2.5296e-07 -1.10193e-08
-1.58969e-12 1.24268e-07 -5.4182e-09
-8.4e-05 -1.27628e-09 3.35337e-08
-8.39511e-05 7.46332e-11 2.44327e-08
-8.39055e-05 1.4356e-09 1.52529e-08
-8.38665e-05 2.81006e-09 5.93439e-09
-8.38379e-05 4.20447e-09 -3.65321e-09
-8.38228e-05 5.62794e-09 -1.36957e-08
-2.39114e-10 2.19157e-06 -1.12382e-07
-1.70617e-10 1.82e-06 -9.42239e-08
-1.18593e-10 1.48265e-06 -7.73909e-08
-8.05414e-11 1.19258e-06 -6.26866e-08
-5.32561e-11 9.48694e-07 -5.01598e-08
-3.38807e-11 7.43271e-07 -3.94868e-08
-2.02423e-11 5.66816e-07 -3.02253e-08
-1.08375e-11 4.10565e-07 -2.19529e-08
-4.6908e-12 2.67417e-07 -1.43232e-08
-1.19803e-12 1.31951e-07 -7.07216e-09
-8.45421e-05 -9.87477e-09 1.0337e-07
-8.44656e-05 -8.90384e-09 8.80427e-08
-8.43545e-05 -7.84272e-09 7.72183e-08
-8.42525e-05 -6.71758e-09 6.8247e-08
-8.41708e-05 -5.54872e-09 5.97549e-08
-8.4106e-05 -4.35099e-09 5.11848e-08
-8.40509e-05 -3.13447e-09 4.24121e-08
-4.05512e-10 2.8564e-06 -1.42959e-07
-3.15097e-10 2.56036e-06 -1.29829e-07
-4.37815e-05 -4.17013e-09 3.76282e-08
-4.22592e-05 -3.83779e-09 3.09904e-08
-4.0908e-05 -3.49794e-09 2.64884e-08
-3.97383e-05 -3.1627e-09 2.28933e-08
-3.87357e-05 -2.83773e-09 1.96121e-08
-3.78779e-05 -2.5247e-09 1.64184e-08
-3.71445e-05 -2.22315e-09 1.32629e-08
-3.65212e-05 -1.93157e-09 1.0158e-08
-3.60005e-05 -1.64778e-09 7.11841e-09
-3.55804e-05 -1.36903e-09 4.1362e-09
-3.52618e-05 -1.09172e-09 1.17476e-09
-3.50475e-05 -8.11291e-10 -1.82798e-09
-3.49399e-05 -5.2206e-10 -4.95312e-09
0 0 0
-3.13975e-10 3.61736e-06 -2.02597e-07
-2.33428e-10 3.23581e-06 -1.8309e-07
-1.66329e-10 2.77632e-06 -1.58467e-07
-1.15541e-10 2.32126e-06 -1.33494e-07
-7.91057e-11 1.91157e-06 -1.10648e-07
-5.36543e-11 1.55935e-06 -9.07621e-08
-3.60116e-11 1.26042e-06 -7.37044e-08
-2.37287e-11 1.00369e-06 -5.89147e-08
-1.51015e-11 7.77003e-07 -4.57431e-08
-9.01182e-12 5.69921e-07 -3.36233e-08
-4.74545e-12 3.74646e-07 -2.21316e-08
-1.8436e-12 1.858e-07 -1.09809e-08
0 0 0
-1.51211e-12 -1.24268e-07 5.41695e-09
-6.09019e-12 -2.5296e-07 1.10174e-08
-1.42088e-11 -3.90953e-07 1.69902e-08
-2.66651e-11 -5.43972e-07 2.35573e-08
-4.46881e-11 -7.18829e-07 3.09797e-08
-7.00596e-11 -9.2329e-07 3.95465e-08
-1.0519e-10 -1.16523e-06 4.95328e-08
-1.53034e-10 -1.45057e-06 6.11071e-08
-2.16646e-10 -1.77956e-06 7.41722e-08
-2.9808e-10 -2.14105e-06 8.81361e-08
-3.96315e-10 -2.5055e-06 1.01651e-07
-5.0412e-10 -2.81891e-06 1.12429e-07
-8.38228e-05 -5.80822e-09 1.34674e-08
-8.38378e-05 -4.37133e-09 3.57315e-09
-8.38665e-05 -2.96352e-09 -5.91196e-09
-8.39055e-05 -1.57525e-09 -1.51629e-08
-8.39511e-05 -1.99734e-10 -2.43013e-08
-8.4e-05 1.16656e-09 -3.33803e-08
-1.12548e-12 -1.31951e-07 7.07092e-09
-4.5449e-12 -2.67417e-07 1.43213e-08
-1.0618e-11 -4.10565e-07 2.19507e-08
-1.99484e-11 -5.66816e-07 3.02231e-08
-3.35096e-11 -7.43271e-07 3.94847e-08
-5.28014e-11 -9.48694e-07 5.0158e-08
-7.99918e-11 -1.19258e-06 6.26852e-08
-1.17932e-10 -1.48265e-06 7.73901e-08
-1.69826e-10 -1.82e-06 9.42237e-08
-2.38174e-10 -2.19157e-06 1.12382e-07
-8.40509e-05 3.04071e-09 -4.22512e-08
-8.4106e-05 4.27318e-09 -5.10269e-08
-8.41708e-05 5.48618e-09 -5.96082e-08
-8.42525e-05 6.66893e-09 -6.81174e-08
-8.43545e-05 7.8062e-09 -7.71103e-08
-8.44656e-05 8.87763e-09 -8.79594e-08
-8.45421e-05 9.85742e-09 -1.03314e-07
-3.14005e-10 -2.56036e-06 1.29829e-07
-4.04291e-10 -2.8564e-06 1.4296e-07
-3.49405e-05 6.87649e-10 4.76515e-09
-3.50491e-05 9.69184e-10 1.71847e-09
-3.52643e-05 1.24212e-09 -1.22729e-09
-3.55836e-05 1.51222e-09 -4.14797e-09
-3.60044e-05 1.78412e-09 -7.10142e-09
-3.65255e-05 2.06139e-09 -1.0121e-08
-3.71489e-05 2.34668e-09 -1.32125e-08
-3.78823e-05 2.64193e-09 -1.63595e-08
-3.87398e-05 2.94837e-09 -1.95481e-08
-3.9742e-05 3.2662e-09 -2.28269e-08
-4.0911e-05 3.59347e-09 -2.64216e-08
-4.22614e-05 3.92438e-09 -3.09247e-08
-4.37829e-05 4.2467e-09 -3.75649e-08
-2.08039e-15 -2.65098e-10 1.56559e-11
-1.88208e-12 -1.86315e-07 1.10091e-08
-4.75436e-12 -3.75116e-07 2.21566e-08
-8.89979e-12 -5.70319e-07 3.36438e-08
-1.47346e-11 -7.7731e-07 4.57567e-08
-2.29059e-11 -1.0039e-06 5.89176e-08
-3.44233e-11 -1.26051e-06 7.36907e-08
-5.55669e-11 -1.55929e-06 9.07747e-08
-8.1158e-11 -1.91141e-06 1.10644e-07
-1.17719e-10 -2.32102e-06 1.33472e-07
-1.68602e-10 -2.77601e-06 1.58429e-07
-2.3573e-10 -3.23546e-06 1.83037e-07
-3.16199e-10 -3.61698e-06 2.02534e-07
-5.84475e-10 -3.00299e-06 1.1831e-07
-6.45181e-10 -2.96926e-06 1.13882e-07
-6.40814e-10 -2.65764e-06 9.865e-08
-5.57729e-10 -2.10629e-06 7.50278e-08
-4.43867e-10 -1.55226e-06 5.24196e-08
-4.65448e-10 -1.54749e-06 4.86914e-08
-8.4487e-05 5.31199e-09 -1.10789e-07
-8.4122e-05 5.81274e-09 -1.58082e-07
-8.31776e-05 6.07789e-09 -2.23384e-07
-8.12929e-05 6.11706e-09 -3.11552e-07
-7.80525e-05 5.93295e-09 -4.20752e-07
-9.37535e-10 -3.06312e-06 8.79788e-08
-4.88391e-10 -2.97372e-06 1.47526e-07
-5.20547e-10 -2.78548e-06 1.35334e-07
-4.61849e-10 -2.18413e-06 1.03412e-07
-2.75166e-10 -1.16262e-06 5.32505e-08
1.80386e-11 6.93272e-08 -3.03918e-09
2.64503e-10 9.49848e-07 -3.92588e-08
-7.30609e-05 1.716e-09 -5.3945e-07
-2.23883e-09 -7.56395e-06 1.91785e-07
-6.60503e-05 -5.96655e-09 -6.33622e-07
-4.05971e-10 -3.79002e-06 2.10397e-07
-4.57295e-10 -3.59227e-06 1.96238e-07
-4.54171e-05 -1.59935e-08 -4.20458e-08
-4.70319e-05 -1.28875e-08 -6.65494e-08
-4.84002e-05 -9.61011e-09 -1.00798e-07
-4.91962e-05 -6.17924e-09 -1.48332e-07
-4.90204e-05 -2.69087e-09 -2.09625e-07
-4.58176e-09 -1.70998e-05 3.66334e-07
1.2786e-10 4.44346e-07 -1.70379e-08
-5.69922e-05 -8.43897e-09 -6.84659e-07
-9.08238e-05 -1.83563e-08 1.02011e-06
-7.69887e-05 -6.86294e-09 1.08017e-06
-2.33344e-09 8.90133e-06 -1.38939e-07
-3.58215e-09 1.44855e-05 -1.88788e-07
-5.40883e-09 2.48709e-05 -2.52779e-07
-0.000117961 -3.16116e-08 1.47932e-06
-9.85662e-05 -2.70508e-08 1.53696e-06
-3.07135e-09 2.41845e-05 5.32387e-08
-2.5615e-09 1.75199e-05 1.42279e-08
-3.498e-09 3.53188e-05 1.30019e-07
-0.000121076 -3.7355e-08 2.00864e-06
-0.000146741 -4.40648e-08 1.96847e-06
2.48614e-09 3.70068e-05 7.5378e-07
1.34827e-09 2.93432e-05 6.03836e-07
4.29398e-09 4.87032e-05 9.74233e-07
-0.000143777 -4.98121e-08 2.41806e-06
-0.000176321 -5.94513e-08 2.40811e-06
1.7373e-08 5.32396e-05 2.18833e-06
1.37546e-08 4.47515e-05 1.93882e-06
-0.00020579 -6.74204e-08 2.67622e-06
-9.42821e-05 -2.90388e-08 1.82736e-06
-7.76707e-05 -1.10491e-08 1.42491e-06
-0.000119192 -3.09024e-08 5.784e-07
-0.000102493 -2.32679e-08 9.36127e-07
-0.000111888 -2.35208e-08 7.57338e-07
-1.6522e-09 6.24888e-06 -1.1122e-07
-1.33845e-09 5.20715e-06 -1.016e-07
-1.191e-09 4.89012e-06 -1.02355e-07
-0.000135194 -4.12645e-08 1.39293e-06
-0.000149994 -4.23425e-08 1.15694e-06
-0.000162419 -4.17613e-08 9.0996e-07
-2.14795e-09 1.36515e-05 -5.09217e-09
-1.84317e-09 1.14229e-05 -1.48577e-08
-1.61166e-09 1.00555e-05 -2.12047e-08
-0.000191604 -5.587e-08 1.57672e-06
-0.000210244 -5.36592e-08 1.2646e-06
-0.000170405 -5.55595e-08 1.865e-06
6.25476e-10 2.42447e-05 5.03591e-07
1.67247e-10 2.07377e-05 4.34658e-07
-1.27115e-10 1.81717e-05 3.82757e-07
-0.000207214 -7.41095e-08 2.29682e-06
-0.00023578 -7.53892e-08 1.97157e-06
-0.000261737 -7.33032e-08 1.60779e-06
1.07844e-08 3.84915e-05 1.74344e-06
8.37562e-09 3.36823e-05 1.58254e-06
6.43515e-09 2.98196e-05 1.44208e-06
-0.00024462 -8.41341e-08 2.55666e-06
-0.000281467 -8.63448e-08 2.20694e-06
-0.000315835 -8.47557e-08 1.80702e-06
2.76794e-08 5.07647e-05 3.87525e-06
2.25767e-08 4.55769e-05 3.61911e-06
3.34055e-08 5.6813e-05 4.13105e-06
-0.000124773 -3.85079e-08 4.21734e-07
-0.000128993 -4.0271e-08 3.10727e-07
-0.000132253 -4.1448e-08 2.2199e-07
-1.01227e-09 4.77368e-06 -1.0594e-07
-1.01946e-09 4.60565e-06 -1.0685e-07
-9.93901e-10 4.30997e-06 -1.03799e-07
-0.000172768 -5.10014e-08 6.87135e-07
-0.000181349 -5.2193e-08 5.24186e-07
-0.000188562 -5.25152e-08 3.91793e-07
-1.22415e-09 9.07235e-06 -2.57859e-08
-1.27424e-09 8.22091e-06 -2.83715e-08
-1.28662e-09 7.39727e-06 -2.96757e-08
-0.000226514 -6.41672e-08 9.74244e-07
-0.000240636 -6.42682e-08 7.61773e-07
-0.000252978 -6.32627e-08 5.90881e-07
1.35439e-10 1.61367e-05 3.40877e-07
-3.93754e-10 1.43965e-05 3.04498e-07
-7.8229e-10 1.28319e-05 2.71035e-07
-0.00028513 -8.68279e-08 1.25547e-06
-0.000306056 -8.75984e-08 1.00031e-06
-0.000324815 -8.69358e-08 7.94915e-07
5.82624e-09 2.65793e-05 1.31683e-06
3.89966e-09 2.37588e-05 1.1999e-06
2.373e-09 2.12381e-05 1.08889e-06
-0.000347587 -1.01596e-07 1.40191e-06
-0.000376657 -1.03909e-07 1.11856e-06
-0.000403234 -1.04648e-07 8.93162e-07
1.52e-08 3.69675e-05 3.11949e-06
1.12363e-08 3.32884e-05 2.87294e-06
1.99911e-08 4.10286e-05 3.3689e-06
-0.000341652 -8.29292e-08 6.50008e-07
-0.000427478 -1.01433e-07 7.39966e-07
0.00230747 4.52284e-07 -3.53289e-06
-0.000263832 -5.99694e-08 4.96843e-07
0.00223345 4.55371e-07 -4.78837e-06
-0.000194715 -3.43738e-08 3.43647e-07
0.00215127 4.45972e-07 -6.52443e-06
-0.000134867 -2.97595e-08 2.48417e-07
-0.000137027 -2.50249e-08 2.05906e-07
-0.000138875 -1.97793e-08 1.67652e-07
-0.000140486 -1.408e-08 1.29569e-07
-6.59319e-10 3.90269e-06 -9.64808e-08
-5.80931e-10 3.43303e-06 -8.66385e-08
-5.02421e-10 2.95016e-06 -7.57952e-08
-0.000200082 -3.86224e-08 3.66879e-07
-0.000204763 -3.38681e-08 3.01188e-07
-0.000208886 -2.82044e-08 2.32767e-07
-7.75295e-10 6.57924e-06 -3.04059e-08
-7.26804e-10 5.77903e-06 -2.85072e-08
-6.69555e-10 5.01674e-06 -2.6226e-08
-0.000273485 -5.89354e-08 5.5466e-07
-0.000282028 -5.29611e-08 4.63433e-07
-0.000289614 -4.54515e-08 3.66943e-07
-2.27577e-10 1.1391e-05 2.38033e-07
-4.01413e-10 1.00535e-05 2.10628e-07
-5.15034e-10 8.81278e-06 1.84735e-07
-0.000356842 -8.17964e-08 7.35696e-07
-0.000370442 -7.44559e-08 6.26355e-07
-0.000382613 -6.48806e-08 5.10174e-07
8.92669e-10 1.48849e-05 7.88709e-07
2.45113e-09 1.89463e-05 9.81289e-07
1.57228e-09 1.68382e-05 8.8323e-07
-0.000449624 -9.9546e-08 8.27844e-07
-0.000469655 -9.15513e-08 7.13435e-07
-0.000487721 -8.06279e-08 5.91288e-07
9.83466e-09 2.99142e-05 2.62919e-06
7.32263e-09 2.67841e-05 2.39609e-06
5.28329e-09 2.38539e-05 2.16566e-06
0.00237444 4.42471e-07 -3.58686e-06
0.0024344 4.10195e-07 -3.00278e-06
0.00248808 3.67819e-07 -2.51519e-06
0.00253588 3.1503e-07 -2.03941e-06
-0.000141902 -1.44561e-08 1.59233e-07
-0.000143136 -1.30431e-08 1.30224e-07
-0.000144197 -1.13582e-08 9.69623e-08
-3.17678e-10 2.48932e-06 -6.5684e-08
-2.45602e-10 2.06957e-06 -5.5204e-08
-1.86666e-10 1.69746e-06 -4.56803e-08
-0.000212518 -3.21839e-08 2.52492e-07
-0.000215688 -3.26128e-08 1.8652e-07
-0.000218421 -3.23321e-08 1.0826e-07
-4.23095e-10 4.3074e-06 -2.4654e-08
-3.45183e-10 3.65754e-06 -2.16205e-08
-2.767e-10 3.06686e-06 -1.86657e-08
-0.000296331 -5.18638e-08 3.75139e-07
-0.000302215 -5.24486e-08 2.73554e-07
-0.000307305 -5.17434e-08 1.52086e-07
-2.69325e-10 7.66408e-06 1.59289e-07
-2.65361e-10 6.60044e-06 1.3744e-07
-2.48648e-10 5.6134e-06 1.16928e-07
-0.00039345 -7.38804e-08 5.07122e-07
-0.000402987 -7.47269e-08 3.78523e-07
-0.000411269 -7.37763e-08 2.25055e-07
8.73163e-10 1.30641e-05 6.96304e-07
5.54557e-10 1.1356e-05 6.10182e-07
3.16557e-10 9.744e-06 5.26813e-07
-0.000503905 -9.2477e-08 5.76045e-07
-0.000518217 -9.44754e-08 4.31735e-07
-0.000530699 -9.43093e-08 2.58921e-07
4.38101e-09 2.10882e-05 1.93628e-06
3.18964e-09 1.84569e-05 1.71405e-06
2.23261e-09 1.59368e-05 1.49365e-06
0.0026153 3.93352e-07 -1.34704e-06
0.00264726 4.0247e-07 -6.81127e-07
0.00257827 3.69959e-07 -1.93059e-06
-0.000145096 -1.1801e-08 8.3341e-08
-0.000145827 -4.85234e-09 4.96625e-08
-0.000146402 2.26886e-09 1.33442e-08
-8.97038e-11 1.37134e-06 -3.74514e-08
-6.23176e-11 1.08531e-06 -2.98936e-08
-4.11447e-11 8.31876e-07 -2.30654e-08
-0.000220749 -2.7275e-08 1.66539e-07
-0.000222655 -1.66783e-08 1.11698e-07
-0.000224165 -5.70662e-09 5.36312e-08
-9.97759e-11 2.5303e-06 -1.59325e-08
-7.89541e-11 2.04027e-06 -1.32145e-08
-5.9912e-11 1.58837e-06 -1.0527e-08
-0.000311656 -4.42836e-08 2.81547e-07
-0.00031523 -2.84378e-08 2.00026e-07
-0.000318072 -1.19275e-08 1.14265e-07
2.30096e-11 4.69302e-06 9.77691e-08
-7.66085e-12 3.82867e-06 7.9674e-08
-2.53921e-11 3.01003e-06 6.2544e-08
-0.000418362 -6.12269e-08 4.06042e-07
-0.000424216 -3.93437e-08 2.98998e-07
-0.00042888 -1.64396e-08 1.86105e-07
5.56911e-10 8.21272e-06 4.46922e-07
3.38507e-10 6.74782e-06 3.68755e-07
1.7719e-10 5.33654e-06 2.92499e-07
-0.000541417 -7.77836e-08 4.86472e-07
-0.000550296 -4.97751e-08 3.62086e-07
-0.000557388 -2.03577e-08 2.30527e-07
2.12071e-09 1.35077e-05 1.2775e-06
1.38676e-09 1.1152e-05 1.06166e-06
8.19269e-10 8.855e-06 8.47165e-07
0.00267458 3.311e-07 -1.70874e-06
0.00269695 2.03006e-07 -1.23241e-06
0.00271471 7.12293e-08 -7.40325e-07
-0.000146826 -8.91442e-10 3.53988e-08
-0.000147105 1.88321e-09 -1.34338e-08
-0.000147244 4.71542e-09 -6.35405e-08
-2.47368e-11 6.03409e-07 -1.66838e-08
-1.32798e-11 3.92792e-07 -1.0904e-08
-5.17056e-12 1.93611e-07 -5.38962e-09
-0.000225287 -1.12911e-08 8.79223e-08
-0.000226031 -6.84824e-09 1.29157e-08
-0.000226402 -2.29301e-09 -6.39328e-08
-4.23222e-11 1.1662e-06 -7.658e-09
-2.72618e-11 7.65722e-07 -5.08421e-09
-1.32337e-11 3.79377e-07 -2.54262e-09
-0.000320191 -1.98329e-08 1.55156e-07
-0.000321599 -1.24618e-08 4.71152e-08
-0.000322301 -4.90207e-09 -6.41654e-08
-3.23113e-11 2.22711e-06 4.65433e-08
-3.05404e-11 1.47043e-06 3.07587e-08
-1.96637e-11 7.30952e-07 1.52865e-08
-0.000432367 -2.70105e-08 2.27654e-07
-0.000434688 -1.63821e-08 8.63298e-08
-0.000435847 -5.45877e-09 -6.05611e-08
6.57237e-11 3.96693e-06 2.1837e-07
7.83306e-13 2.62793e-06 1.45028e-07
-2.05819e-11 1.309e-06 7.23145e-08
-0.000562701 -3.37183e-08 2.6774e-07
-0.000566242 -2.03877e-08 1.02689e-07
-0.000568011 -6.62281e-09 -7.0384e-08
4.03022e-10 6.60307e-06 6.34697e-07
1.33095e-10 4.38415e-06 4.22811e-07
6.23598e-14 2.18676e-06 2.11235e-07
0.00272794 1.35954e-07 -8.80683e-07
0.00273673 8.64875e-08 -2.67201e-07
0.00274112 3.5446e-08 3.7713e-07
0 0 0
0 0 0
0 0 0
0 0 0
0 0 0
-0.000147244 -5.02006e-09 6.33728e-08
-0.000147105 -2.16943e-09 1.34747e-08
-0.000146826 6.24605e-10 -3.52176e-08
-5.02664e-12 -1.9361e-07 5.38444e-09
-1.28401e-11 -3.9279e-07 1.08934e-08
-2.37627e-11 -6.03406e-07 1.66628e-08
-0.000226402 7.45571e-09 6.54609e-08
-0.000226032 1.08624e-08 -1.42913e-08
-0.000225287 1.4204e-08 -9.31764e-08
-1.30262e-11 -3.79374e-07 2.53709e-09
-2.65593e-11 -7.65717e-07 5.07406e-09
-4.07108e-11 -1.1662e-06 7.63635e-09
-0.000322302 1.19596e-08 6.74436e-08
-0.0003216 1.78875e-08 -4.88475e-08
-0.000320191 2.36975e-08 -1.6346e-07
-1.98018e-11 -7.30945e-07 -1.52632e-08
-3.12259e-11 -1.47041e-06 -3.07237e-08
-3.38384e-11 -2.2271e-06 -4.65154e-08
-0.000435845 1.5247e-08 8.31494e-08
-0.000434686 2.39868e-08 -7.08623e-08
-0.000432364 3.25403e-08 -2.22178e-07
-2.0941e-11 -1.30898e-06 -7.22636e-08
-6.56836e-13 -2.62791e-06 -1.44937e-07
6.24579e-11 -3.9669e-06 -2.18259e-07
-0.000568008 1.88386e-08 9.88178e-08
-0.000566239 2.97739e-08 -8.37701e-08
-0.000562697 4.04396e-08 -2.62408e-07
-6.45462e-13 -2.18674e-06 -2.11134e-07
1.30504e-10 -4.38412e-06 -4.22611e-07
3.96867e-10 -6.60304e-06 -6.34404e-07
0.00274112 -8.5261e-08 -4.51382e-07
0.00273674 -1.2339e-07 2.51056e-07
0.00272794 -1.60709e-07 9.38092e-07
-0.000146402 -2.50746e-09 -1.30773e-08
-0.000145827 4.63919e-09 -4.93479e-08
-0.000145096 1.16158e-08 -8.30078e-08
-4.00922e-11 -8.31863e-07 2.30706e-08
-6.04441e-11 -1.0853e-06 2.99087e-08
-8.67695e-11 -1.37134e-06 3.74918e-08
-0.000224165 2.58606e-09 -3.59307e-08
-0.000222656 2.15104e-08 -1.0149e-07
-0.00022075 3.97837e-08 -1.60449e-07
-5.75755e-11 -1.58835e-06 1.05718e-08
-7.50497e-11 -2.04026e-06 1.32694e-08
-9.39204e-11 -2.53031e-06 1.60241e-08
-0.000318072 6.27663e-09 -9.15634e-08
-0.000315231 3.41343e-08 -1.85756e-07
-0.000311657 6.08594e-08 -2.71478e-07
-2.75377e-11 -3.01001e-06 -6.23846e-08
-1.11704e-11 -3.82868e-06 -7.95287e-08
1.76019e-11 -4.69306e-06 -9.75948e-08
-0.000428878 8.10852e-09 -1.44381e-07
-0.000424215 4.62909e-08 -2.65681e-07
-0.000418363 8.27649e-08 -3.76666e-07
1.75685e-10 -5.33654e-06 -2.92151e-07
3.35137e-10 -6.74786e-06 -3.68454e-07
5.50843e-10 -8.21282e-06 -4.46591e-07
-0.000557386 8.16713e-09 -1.87992e-07
-0.000550295 5.71714e-08 -3.2446e-07
-0.000541418 1.0387e-07 -4.49531e-07
8.20882e-10 -8.85506e-06 -8.46519e-07
1.38626e-09 -1.11521e-05 -1.06112e-06
2.11691e-09 -1.35079e-05 -1.27694e-06
0.00271471 -3.00898e-09 6.82729e-07
0.00269695 -2.27897e-07 1.16438e-06
0.00267459 -4.46763e-07 1.61512e-06
-0.000144197 1.11929e-08 -9.66291e-08
-0.000143136 1.29059e-08 -1.29909e-07
-0.000141902 1.43455e-08 -1.58948e-07
-1.85776e-10 -1.69745e-06 4.57828e-08
-2.44773e-10 -2.06955e-06 5.534e-08
-3.16945e-10 -2.48929e-06 6.58466e-08
-0.00021842 2.39045e-08 -1.40639e-07
-0.000215687 2.62435e-08 -2.06796e-07
-0.000212518 2.79236e-08 -2.62899e-07
-2.7485e-10 -3.06684e-06 1.87687e-08
-3.43423e-10 -3.65751e-06 2.17861e-08
-4.21487e-10 -4.30735e-06 2.48676e-08
-0.000307305 4.02658e-08 -1.9443e-07
-0.000302214 4.38541e-08 -3.00203e-07
-0.000296331 4.6214e-08 -3.89027e-07
-2.48366e-10 -5.61336e-06 -1.16786e-07
-2.6733e-10 -6.60039e-06 -1.37197e-07
-2.74187e-10 -7.66401e-06 -1.58979e-07
-0.000411268 5.71044e-08 -2.72194e-07
-0.000402986 6.22733e-08 -4.06519e-07
-0.00039345 6.56973e-08 -5.19676e-07
3.17863e-10 -9.74394e-06 -5.26774e-07
5.52459e-10 -1.13559e-05 -6.09948e-07
8.66572e-10 -1.3064e-05 -6.95941e-07
-0.000530698 7.28309e-08 -3.12191e-07
-0.000518216 7.86349e-08 -4.63469e-07
-0.000503905 8.22721e-08 -5.90344e-07
2.23589e-09 -1.59367e-05 -1.49387e-06
3.18826e-09 -1.84568e-05 -1.71393e-06
4.37312e-09 -2.10881e-05 -1.93593e-06
0.00264726 -3.02986e-07 9.06314e-07
0.00261529 -3.2099e-07 1.49219e-06
0.00257827 -3.24799e-07 2.00778e-06
-0.000140486 1.3995e-08 -1.29323e-07
-0.000138875 1.97147e-08 -1.67451e-07
-0.000137027 2.49775e-08 -2.05753e-07
-0.000134867 2.97264e-08 -2.48313e-07
-5.01797e-10 -2.95012e-06 7.5973e-08
-5.80454e-10 -3.43298e-06 8.68152e-08
-6.59018e-10 -3.90263e-06 9.6636e-08
-0.000208886 2.60793e-08 -2.35269e-07
-0.000204763 3.38608e-08 -2.97403e-07
-0.000200082 4.06886e-08 -3.58096e-07
-6.68124e-10 -5.01667e-06 2.64667e-08
-7.25616e-10 -5.77895e-06 2.87491e-08
-7.74401e-10 -6.57914e-06 3.06178e-08
-0.000289614 4.27649e-08 -3.70653e-07
-0.000282028 5.31883e-08 -4.59095e-07
-0.000273485 6.19793e-08 -5.43982e-07
-5.23427e-10 -8.81269e-06 -1.844e-07
-4.14091e-10 -1.00533e-05 -2.10316e-07
-2.45341e-10 -1.13908e-05 -2.37798e-07
-0.000382613 6.09501e-08 -5.10537e-07
-0.000370442 7.46608e-08 -6.17219e-07
-0.000356842 8.59453e-08 -7.19236e-07
8.80517e-10 -1.48848e-05 -7.88295e-07
1.55331e-09 -1.6838e-05 -8.82851e-07