# vtk DataFile Version 3.0
vtk output
ASCII
DATASET POLYDATA
POINTS 19291 float
0.139932 0.970032 -0.0533993
0.140144 0.960048 -0.0528187
0.140327 0.950059 -0.0522516
0.129577 0.96515 -0.0515598
0.129807 0.955161 -0.0510009
0.130035 0.945177 -0.0504102
0.130216 0.935188 -0.0498775
0.18346 0.909706 -0.052277
0.183619 0.899718 -0.0516445
0.172852 0.904802 -0.0519112
0.194209 0.904625 -0.0518721
0.162118 0.909888 -0.0518225
0.172998 0.894819 -0.0513195
0.194326 0.894642 -0.0512453
0.162288 0.899899 -0.0512375
0.17316 0.884832 -0.0507146
0.183791 0.889739 -0.0509792
0.183938 0.879752 -0.0503688
0.194468 0.884659 -0.0506065
0.162481 0.889919 -0.0506291
0.151736 0.904999 -0.0505795
0.173359 0.87485 -0.0500487
0.194596 0.874671 -0.0500189
0.162651 0.879931 -0.0500505
0.151934 0.89501 -0.0499375
0.204747 0.909522 -0.0520816
0.22588 0.909351 -0.0517752
0.24659 0.909193 -0.0518842
0.204869 0.899538 -0.0514375
0.225962 0.899362 -0.0512004
0.246657 0.899208 -0.0512505
0.215423 0.904448 -0.0515171
0.236317 0.904281 -0.0514973
0.256935 0.904132 -0.0515272
0.215518 0.894465 -0.050921
0.236391 0.894296 -0.0508973
0.256992 0.894147 -0.050905
0.205009 0.889563 -0.0507467
0.226062 0.889386 -0.0505763
0.246729 0.889233 -0.0506026
0.205132 0.879577 -0.0501077
0.226152 0.8794 -0.0499833
0.246804 0.879247 -0.0499747
0.215635 0.884482 -0.0503324
0.236475 0.88432 -0.0502645
0.257058 0.884172 -0.0502555
0.140478 0.940072 -0.0517334
0.140686 0.930085 -0.0511407
0.140875 0.920096 -0.0505759
0.194063 0.914606 -0.052536
0.172664 0.914787 -0.0525449
0.151483 0.914988 -0.0513024
0.183272 0.919687 -0.0529595
0.161912 0.91987 -0.0524752
0.172458 0.924765 -0.0532378
0.19389 0.924586 -0.0532208
0.151194 0.924972 -0.0521086
0.18309 0.929666 -0.0536516
0.161727 0.929857 -0.0530943
0.150968 0.934963 -0.0527526
0.182935 0.939652 -0.0542914
0.172285 0.934752 -0.0538597
0.193723 0.934573 -0.053871
0.150509 0.964926 -0.0544754
0.193586 0.944552 -0.0545361
0.17217 0.944737 -0.0544386
0.161482 0.939842 -0.0537613
0.150637 0.954936 -0.053958
0.1508 0.944953 -0.0533535
0.182763 0.949629 -0.0549508
0.161301 0.949831 -0.0544005
0.171986 0.954715 -0.0550779
0.193445 0.954534 -0.0552039
0.182604 0.959615 -0.0555965
0.161072 0.959813 -0.0550438
0.193298 0.964513 -0.055849
0.171788 0.964704 -0.0557092
0.160908 0.969799 -0.0556682
0.182412 0.969594 -0.0562505
0.215307 0.914427 -0.0521728
0.236233 0.914259 -0.0521321
0.256873 0.91411 -0.0521784
0.204628 0.919508 -0.05273
0.246513 0.919173 -0.0525398
0.225767 0.919335 -0.0524221
0.21516 0.924403 -0.0528948
0.246428 0.929153 -0.0531915
0.236125 0.924241 -0.052775
0.256795 0.92409 -0.0528303
0.204485 0.929486 -0.0533942
0.204345 0.939466 -0.0540674
0.204223 0.949449 -0.054705
0.20409 0.959428 -0.0553563
0.203968 0.969411 -0.0559908
0.215021 0.934387 -0.0535827
0.256737 0.93407 -0.0534559
0.236021 0.934221 -0.0534188
0.22565 0.929313 -0.0530834
0.22553 0.939291 -0.0537572
0.246335 0.939131 -0.0538669
0.214899 0.944366 -0.0542387
0.235933 0.944205 -0.0540278
0.256667 0.944053 -0.0540785
0.225419 0.949271 -0.0543903
0.246259 0.949111 -0.0544689
0.214777 0.954347 -0.0549033
0.235832 0.954179 -0.0546703
0.256599 0.954026 -0.0547234
0.225293 0.959248 -0.0550742
0.246179 0.959089 -0.0551058
0.214672 0.964324 -0.0555247
0.256536 0.964002 -0.0553564
0.235744 0.964161 -0.055295
0.225194 0.969229 -0.0557148
0.246104 0.969069 -0.0557288
0.287605 0.908936 -0.052235
0.308007 0.908847 -0.0522791
0.267089 0.909045 -0.0518558
0.277432 0.904003 -0.0516955
0.297837 0.903907 -0.0519208
0.318222 0.903819 -0.051976
0.267175 0.899064 -0.0512282
0.297889 0.893924 -0.0513075
0.318265 0.893836 -0.0513441
0.287691 0.898963 -0.0515844
0.308075 0.898874 -0.051636
0.287755 0.888988 -0.0509315
0.308127 0.888899 -0.0509721
0.277531 0.894028 -0.0510914
0.267298 0.889097 -0.0505899
0.277611 0.884051 -0.0504607
0.29797 0.883955 -0.0506627
0.318324 0.883866 -0.0506822
0.298034 0.873973 -0.0500353
0.318372 0.873883 -0.0500445
0.267394 0.879115 -0.0499726
0.287852 0.879013 -0.050287
0.3082 0.878922 -0.0503388
0.36886 0.908594 -0.0527307
0.37898 0.913564 -0.0530287
0.328323 0.908748 -0.052461
0.338484 0.903713 -0.0522075
0.358752 0.90364 -0.0522937
0.378999 0.903587 -0.0523622
0.348622 0.908665 -0.052546
0.328364 0.898768 -0.0517944
0.348653 0.898687 -0.0518921
0.36888 0.898621 -0.0520603
0.368903 0.888648 -0.0513954
0.338524 0.893739 -0.0515611
0.358776 0.893666 -0.0516455
0.379008 0.893613 -0.0517063
0.338565 0.883764 -0.0508994
0.358803 0.883692 -0.0509824
0.379025 0.883639 -0.0510377
0.328415 0.8888 -0.0511145
0.348687 0.888719 -0.0512137
0.328457 0.878818 -0.0504975
0.348721 0.878738 -0.050588
0.368928 0.878673 -0.0507434
0.368951 0.868693 -0.0500881
0.338614 0.873789 -0.0502475
0.358832 0.873717 -0.0503305
0.379037 0.873664 -0.0503761
0.297761 0.91388 -0.0525516
0.318164 0.913793 -0.052624
0.277354 0.913982 -0.052326
0.267 0.919021 -0.0524857
0.277237 0.92395 -0.0529321
0.297697 0.923858 -0.0531966
0.318114 0.92377 -0.0532812
0.28753 0.918919 -0.052868
0.307946 0.918827 -0.0529139
0.26695 0.928999 -0.0531105
0.287434 0.928888 -0.0534943
0.307873 0.928803 -0.0535221
0.297607 0.933834 -0.0538255
0.318047 0.933747 -0.0539084
0.277157 0.933931 -0.0535382
0.266897 0.938977 -0.0537604
0.287359 0.938868 -0.0541266
0.307812 0.938783 -0.054167
0.266845 0.948956 -0.0543623
0.266795 0.958933 -0.0549948
0.266747 0.968912 -0.0556234
0.277039 0.943901 -0.0541659
0.297541 0.943815 -0.0544621
0.317995 0.943727 -0.0545502
0.287257 0.948837 -0.0547401
0.307742 0.948752 -0.054802
0.297451 0.953781 -0.0551314
0.317928 0.953694 -0.0552213
0.276962 0.953874 -0.0547855
0.287189 0.958818 -0.0553179
0.307688 0.95873 -0.0554271
0.29739 0.963759 -0.0557719
0.317878 0.963672 -0.0558639
0.276889 0.96385 -0.0553934
0.287097 0.968786 -0.0559463
0.307617 0.968699 -0.0560564
0.328263 0.918721 -0.0531437
0.348582 0.918635 -0.0532173
0.368832 0.91857 -0.0533904
0.338445 0.913692 -0.052864
0.358721 0.913619 -0.0529545
0.33839 0.923662 -0.0535427
0.35869 0.923589 -0.0536347
0.378964 0.923534 -0.0537303
0.368805 0.928545 -0.0540457
0.328215 0.928704 -0.0537834
0.348544 0.928618 -0.0538456
0.37895 0.933506 -0.0543922
0.338349 0.933643 -0.0541647
0.358662 0.933569 -0.0542685
0.328157 0.938678 -0.0544466
0.348501 0.93859 -0.0545065
0.368777 0.938524 -0.0546905
0.358628 0.943542 -0.0549246
0.378929 0.943486 -0.0550467
0.338303 0.943624 -0.0548062
0.328115 0.948656 -0.0550902
0.368753 0.948492 -0.0553531
0.348463 0.948566 -0.0551537
0.378913 0.953453 -0.0557278
0.338249 0.953591 -0.0554866
0.358592 0.953517 -0.0555701
0.328062 0.958625 -0.0557552
0.348423 0.958534 -0.0558224
0.368728 0.958468 -0.0560018
0.328025 0.968606 -0.056387
0.358563 0.963486 -0.0562232
0.378894 0.963429 -0.0563772
0.338211 0.963569 -0.0561344
0.368705 0.96844 -0.0566464
0.348388 0.968514 -0.0564408
0.378879 0.973395 -0.0570589
0.358534 0.97346 -0.0568689
0.419383 0.913477 -0.0531488
0.38908 0.908545 -0.0526611
0.40928 0.908506 -0.0527741
0.429481 0.908479 -0.0527602
0.399195 0.913519 -0.0530324
0.439555 0.913464 -0.0530404
0.399208 0.903542 -0.0523723
0.419393 0.903506 -0.0524855
0.439557 0.903487 -0.0523778
0.399223 0.893563 -0.0517348
0.419401 0.893527 -0.0518452
0.439559 0.893508 -0.0517339
0.389123 0.898574 -0.0520039
0.409297 0.898534 -0.0521221
0.429481 0.898508 -0.0521075
0.38915 0.888602 -0.0513396
0.40931 0.888562 -0.0514556
0.429488 0.888536 -0.0514374
0.399254 0.883596 -0.0510658
0.419414 0.88356 -0.0511764
0.439555 0.883541 -0.0510636
0.399277 0.873617 -0.050415
0.419428 0.873581 -0.0505253
0.43956 0.873562 -0.050411
0.389197 0.878628 -0.0506967
0.409331 0.878588 -0.050811
0.429493 0.878562 -0.0507929
0.389231 0.86865 -0.0500379
0.409348 0.868609 -0.0501522
0.429504 0.868583 -0.0501322
0.459716 0.913433 -0.0531748
0.449634 0.908456 -0.0527848
0.469782 0.908444 -0.0527488
0.489916 0.908443 -0.0526883
0.479845 0.913437 -0.0530232
0.4597 0.903463 -0.0525045
0.479837 0.90346 -0.0523591
0.4597 0.893484 -0.0518643
0.449627 0.898485 -0.0521219
0.469763 0.898473 -0.0520887
0.489884 0.898471 -0.0520289
0.449631 0.888513 -0.0514536
0.46976 0.888501 -0.0514208
0.489873 0.8885 -0.0513621
0.47981 0.893487 -0.0517142
0.45969 0.883517 -0.0511946
0.479804 0.883514 -0.0510508
0.459694 0.873538 -0.0505448
0.479799 0.873536 -0.0504012
0.449631 0.878539 -0.050807
0.469742 0.878527 -0.0507751
0.489839 0.878525 -0.050719
0.449639 0.868561 -0.0501507
0.469742 0.868549 -0.0501169
0.489829 0.868547 -0.0500618
0.389048 0.918519 -0.0533338
0.409264 0.918481 -0.0534443
0.429475 0.918455 -0.0534269
0.399163 0.923488 -0.0537135
0.419371 0.923452 -0.0538197
0.439559 0.923433 -0.0537215
0.388997 0.928493 -0.0539746
0.409245 0.928455 -0.0540898
0.429472 0.928428 -0.0540795
0.419361 0.933424 -0.0544735
0.439564 0.933405 -0.0543818
0.399146 0.933468 -0.0543547
0.388965 0.938471 -0.0546327
0.409229 0.938434 -0.0547495
0.429465 0.938407 -0.054742
0.399118 0.94344 -0.0550096
0.419351 0.943404 -0.0551282
0.439559 0.943385 -0.0550423
0.388919 0.948439 -0.0552898
0.409208 0.948402 -0.0554101
0.429461 0.948375 -0.0554129
0.419342 0.953371 -0.0558029
0.439562 0.953351 -0.0557154
0.399101 0.953414 -0.0556687
0.388892 0.958413 -0.055941
0.409199 0.958378 -0.0560664
0.429455 0.958349 -0.0560823
0.399074 0.963383 -0.0563226
0.419336 0.963347 -0.0564602
0.43956 0.963327 -0.0563752
0.388874 0.968385 -0.0565876
0.409182 0.968349 -0.056706
0.429454 0.968321 -0.0567185
0.419326 0.973313 -0.0571196
0.439565 0.973293 -0.05704
0.399055 0.973357 -0.056972
0.44963 0.918431 -0.053451
0.469786 0.918419 -0.0534168
0.489926 0.918418 -0.0533569
0.459714 0.923408 -0.0538488
0.479872 0.923406 -0.053702
0.449633 0.928405 -0.0541032
0.469806 0.928393 -0.0540717
0.489962 0.928392 -0.0540075
0.459725 0.93338 -0.0545087
0.479877 0.933385 -0.0543512
0.449628 0.938383 -0.0547614
0.469806 0.938371 -0.054731
0.48997 0.93837 -0.0546652
0.459722 0.94336 -0.0551587
0.479901 0.943358 -0.0550057
0.449632 0.948351 -0.0554282
0.469825 0.948339 -0.0553944
0.490001 0.948338 -0.0553257
[...]
POINT_DATA 19291
VECTORS alpha float
1.12202e-06 -9.19667e-09 -1.69969e-08
1.09669e-06 -8.94152e-09 -1.43144e-08
1.07433e-06 -8.67393e-09 -1.2127e-08
-3.42789e-07 1.66732e-05 -1.0388e-06
-3.29127e-07 1.66947e-05 -1.04598e-06
-3.34993e-07 1.67174e-05 -1.05655e-06
-3.1465e-07 1.67394e-05 -1.02371e-06
1.07175e-06 -8.09859e-09 6.54708e-08
1.04692e-06 -7.78432e-09 6.40113e-08
-2.64088e-07 1.96476e-05 -1.3054e-06
-2.06833e-07 1.94534e-05 -1.31709e-06
1.03465e-06 -8.15783e-09 4.8961e-08
-2.60346e-07 1.96695e-05 -1.29784e-06
-2.01168e-07 1.94754e-05 -1.30887e-06
1.01047e-06 -7.85512e-09 4.89115e-08
-2.48159e-07 1.96904e-05 -1.29534e-06
1.02258e-06 -7.51232e-09 6.21856e-08
9.98311e-07 -7.22531e-09 6.11102e-08
-1.96015e-07 1.9496e-05 -1.30832e-06
9.87013e-07 -7.5787e-09 4.84074e-08
-2.94996e-07 1.86636e-05 -1.17972e-06
-2.46386e-07 1.97109e-05 -1.28932e-06
-1.97032e-07 1.95164e-05 -1.30831e-06
9.63715e-07 -7.29923e-09 4.86314e-08
-3.02106e-07 1.86857e-05 -1.14703e-06
1.10116e-06 -7.90208e-09 5.73277e-08
1.1239e-06 -7.42949e-09 3.9655e-08
1.14986e-06 -6.68878e-09 3.36389e-08
1.07509e-06 -7.61608e-09 5.54841e-08
1.09763e-06 -7.10651e-09 4.00777e-08
1.12358e-06 -6.43705e-09 3.34153e-08
-1.51931e-07 1.82791e-05 -1.23921e-06
-1.09086e-07 1.65268e-05 -1.12309e-06
-7.70038e-08 1.45875e-05 -9.97521e-07
-1.53901e-07 1.83001e-05 -1.23979e-06
-1.07336e-07 1.65458e-05 -1.12775e-06
-7.49798e-08 1.46048e-05 -9.94862e-07
1.05044e-06 -7.36345e-09 5.38775e-08
1.07251e-06 -6.84906e-09 3.98026e-08
1.0982e-06 -6.22642e-09 3.30401e-08
1.02594e-06 -7.08929e-09 5.32203e-08
1.04761e-06 -6.59234e-09 3.99181e-08
1.07319e-06 -6.02413e-09 3.27257e-08
-1.53541e-07 1.83195e-05 -1.22939e-06
-1.05714e-07 1.65646e-05 -1.12244e-06
-7.46924e-08 1.46219e-05 -9.9187e-07
1.05039e-06 -8.39487e-09 -7.81368e-09
1.02894e-06 -8.13969e-09 -6.02314e-09
1.00605e-06 -7.84184e-09 -3.20226e-09
-1.99382e-07 1.94315e-05 -1.31516e-06
-2.59681e-07 1.96251e-05 -1.28636e-06
-2.75022e-07 1.86407e-05 -1.13836e-06
1.09518e-06 -8.32534e-09 6.86349e-08
1.05759e-06 -8.38767e-09 5.08676e-08
-2.55017e-07 1.96008e-05 -1.29093e-06
-2.04649e-07 1.94083e-05 -1.31819e-06
-2.81094e-07 1.86172e-05 -1.16569e-06
1.12138e-06 -8.62304e-09 7.08984e-08
1.08205e-06 -8.69054e-09 5.08182e-08
-2.84987e-07 1.85944e-05 -1.16651e-06
1.14568e-06 -8.96201e-09 7.24826e-08
-2.55229e-07 1.95787e-05 -1.27762e-06
-2.0998e-07 1.93865e-05 -1.31028e-06
-3.19101e-07 1.85245e-05 -1.15365e-06
-2.2034e-07 1.93639e-05 -1.32036e-06
-2.69197e-07 1.95557e-05 -1.28782e-06
1.1058e-06 -8.91831e-09 5.25586e-08
-2.91013e-07 1.85473e-05 -1.16796e-06
-2.95638e-07 1.85712e-05 -1.19562e-06
1.17338e-06 -9.31327e-09 7.45006e-08
1.13245e-06 -9.24918e-09 5.29357e-08
-2.61157e-07 1.95321e-05 -1.27963e-06
-2.19401e-07 1.93394e-05 -1.32284e-06
1.19738e-06 -9.63707e-09 7.55541e-08
1.15815e-06 -9.51733e-09 5.41785e-08
-2.29837e-07 1.93167e-05 -1.33185e-06
-2.71841e-07 1.95076e-05 -1.28389e-06
1.18454e-06 -9.79681e-09 5.27724e-08
1.2265e-06 -9.97266e-09 7.78169e-08
-1.43425e-07 1.82581e-05 -1.23826e-06
-1.05065e-07 1.65077e-05 -1.11266e-06
-7.43369e-08 1.45698e-05 -9.93565e-07
1.12429e-06 -8.14151e-09 5.91397e-08
1.17404e-06 -6.84878e-09 3.51355e-08
1.14695e-06 -7.64632e-09 4.04677e-08
-1.46858e-07 1.82362e-05 -1.23934e-06
1.20171e-06 -7.12396e-09 3.63849e-08
-1.06711e-07 1.64872e-05 -1.10727e-06
-7.41818e-08 1.45508e-05 -9.93826e-07
1.15103e-06 -8.42121e-09 6.18333e-08
1.17531e-06 -8.66656e-09 6.44157e-08
1.20257e-06 -8.98927e-09 6.61915e-08
1.22764e-06 -9.24053e-09 6.79e-08
1.25591e-06 -9.55067e-09 6.97111e-08
-1.51605e-07 1.82157e-05 -1.21892e-06
-7.36686e-08 1.45333e-05 -9.82507e-07
-1.09132e-07 1.64682e-05 -1.10131e-06
1.1747e-06 -7.89718e-09 4.19818e-08
1.19978e-06 -8.1089e-09 4.33875e-08
1.22678e-06 -7.29138e-09 3.78182e-08
-1.51793e-07 1.81945e-05 -1.21831e-06
-1.11604e-07 1.64476e-05 -1.1017e-06
-7.61072e-08 1.45148e-05 -9.77579e-07
1.22797e-06 -8.40729e-09 4.48291e-08
1.25587e-06 -7.57685e-09 3.91758e-08
-1.5343e-07 1.81713e-05 -1.22077e-06
-1.12162e-07 1.64267e-05 -1.11207e-06
-7.56922e-08 1.44957e-05 -9.77252e-07
1.25331e-06 -8.61954e-09 4.63502e-08
1.28229e-06 -7.79715e-09 3.98483e-08
-1.52034e-07 1.81496e-05 -1.22613e-06
-7.65994e-08 1.4477e-05 -9.84498e-07
-1.10833e-07 1.64058e-05 -1.11428e-06
1.28176e-06 -8.89854e-09 4.7731e-08
1.31137e-06 -8.07647e-09 4.063e-08
1.20039e-06 -4.88099e-09 2.2983e-08
1.22515e-06 -4.37093e-09 2.15319e-08
1.17737e-06 -5.89477e-09 2.42627e-08
-3.5297e-08 1.27324e-05 -8.73539e-07
-2.13836e-08 1.10872e-05 -7.66994e-07
-1.90742e-08 9.66664e-06 -6.82411e-07
1.15042e-06 -5.6506e-09 2.46748e-08
-2.27834e-08 1.11008e-05 -7.66443e-07
-1.85286e-08 9.679e-06 -6.80649e-07
1.17273e-06 -4.75156e-09 2.28296e-08
1.19724e-06 -4.24453e-09 2.15059e-08
1.14643e-06 -4.58758e-09 2.30456e-08
1.17028e-06 -4.0883e-09 2.13101e-08
-3.79237e-08 1.27479e-05 -8.74421e-07
1.12381e-06 -5.43325e-09 2.50773e-08
-3.88098e-08 1.27635e-05 -8.76335e-07
-2.52762e-08 1.11144e-05 -7.70341e-07
-1.89099e-08 9.69133e-06 -6.82687e-07
-2.52295e-08 1.11276e-05 -7.68723e-07
-1.77857e-08 9.70318e-06 -6.85081e-07
1.09808e-06 -5.25174e-09 2.51573e-08
1.11999e-06 -4.49535e-09 2.29666e-08
1.14346e-06 -3.99655e-09 2.09549e-08
1.28392e-06 -2.47984e-09 2.06177e-08
-1.37957e-08 6.22967e-06 -4.44055e-07
1.24776e-06 -3.87876e-09 2.03857e-08
-1.1148e-08 8.42708e-06 -5.95947e-07
-9.98003e-09 7.3025e-06 -5.12776e-07
-1.2815e-08 6.23837e-06 -4.42718e-07
1.26522e-06 -3.04338e-09 2.08002e-08
1.21968e-06 -3.76299e-09 1.9747e-08
1.23696e-06 -2.93841e-09 2.05514e-08
1.25506e-06 -2.43138e-09 2.00839e-08
1.22673e-06 -2.32885e-09 1.99919e-08
-1.25161e-08 8.43769e-06 -5.95514e-07
-1.1059e-08 7.31181e-06 -5.13245e-07
-1.26329e-08 6.2464e-06 -4.43779e-07
-1.2352e-08 8.44876e-06 -5.94877e-07
-1.09936e-08 7.32154e-06 -5.12141e-07
-1.21364e-08 6.25479e-06 -4.43457e-07
1.19153e-06 -3.63883e-09 1.95745e-08
1.2086e-06 -2.85469e-09 2.03513e-08
1.16458e-06 -3.48415e-09 1.97314e-08
1.18145e-06 -2.74517e-09 2.03528e-08
1.1989e-06 -2.27529e-09 1.97549e-08
1.1743e-06 -2.18469e-09 1.93913e-08
-1.29981e-08 8.45926e-06 -5.94124e-07
-1.17149e-08 7.33067e-06 -5.12881e-07
-1.18193e-08 6.26268e-06 -4.44286e-07
-1.78386e-08 1.10732e-05 -7.66775e-07
-1.87931e-08 9.65384e-06 -6.85749e-07
-3.36597e-08 1.27162e-05 -8.69039e-07
1.20217e-06 -6.05326e-09 2.47035e-08
-3.18938e-08 1.26995e-05 -8.70746e-07
-1.83321e-08 1.10582e-05 -7.71671e-07
-2.05257e-08 9.64048e-06 -6.85432e-07
1.2249e-06 -4.99615e-09 2.27315e-08
1.24998e-06 -4.49362e-09 2.13374e-08
1.2301e-06 -6.29694e-09 2.52281e-08
1.25399e-06 -5.15442e-09 2.21587e-08
1.27931e-06 -4.63913e-09 2.05196e-08
-1.58852e-08 1.10439e-05 -7.58569e-07
-1.89409e-08 9.62806e-06 -6.78892e-07
-2.93495e-08 1.26835e-05 -8.53333e-07
1.25567e-06 -6.43284e-09 2.64849e-08
1.27954e-06 -5.30002e-09 2.20621e-08
1.30519e-06 -4.769e-09 2.07318e-08
1.28476e-06 -6.66268e-09 2.73354e-08
1.31113e-06 -6.82006e-09 2.81676e-08
1.34044e-06 -7.03931e-09 2.87098e-08
-2.91812e-08 1.26669e-05 -8.4758e-07
-1.68585e-08 1.10287e-05 -7.52987e-07
-2.00486e-08 9.61478e-06 -6.7757e-07
1.3097e-06 -5.44883e-09 2.15827e-08
1.33576e-06 -4.88764e-09 2.0878e-08
-1.48085e-08 1.10131e-05 -7.47985e-07
-1.94837e-08 9.60105e-06 -6.75077e-07
-2.79964e-08 1.26492e-05 -8.41835e-07
1.33623e-06 -5.62979e-09 2.0429e-08
1.36292e-06 -5.03606e-09 2.07365e-08
-1.24775e-08 1.09971e-05 -7.44395e-07
-1.81544e-08 9.58728e-06 -6.73939e-07
-2.59229e-08 1.26315e-05 -8.482e-07
1.36684e-06 -5.80246e-09 1.96461e-08
1.39363e-06 -5.17812e-09 2.01921e-08
1.27371e-06 -3.93158e-09 2.09347e-08
1.29152e-06 -3.11503e-09 2.10162e-08
1.31008e-06 -2.56424e-09 2.07471e-08
-1.06557e-08 8.41559e-06 -5.97687e-07
-9.70306e-09 7.29239e-06 -5.13783e-07
-1.01043e-08 8.40395e-06 -5.96535e-07
-9.78566e-09 7.28218e-06 -5.11944e-07
-1.42274e-08 6.2208e-06 -4.42987e-07
1.34065e-06 -2.63639e-09 2.08993e-08
1.30325e-06 -4.06728e-09 2.10923e-08
1.32121e-06 -3.25324e-09 2.0587e-08
-1.41341e-08 6.21239e-06 -4.41977e-07
-9.52285e-09 8.39268e-06 -5.96113e-07
-9.21257e-09 7.27226e-06 -5.10769e-07
1.32999e-06 -4.12765e-09 2.15515e-08
1.34851e-06 -3.36434e-09 2.06223e-08
1.36769e-06 -2.75492e-09 2.09441e-08
-8.92165e-09 7.26233e-06 -5.06056e-07
-1.48768e-08 6.20359e-06 -4.3893e-07
-9.69539e-09 8.38097e-06 -5.94062e-07
1.3604e-06 -4.23466e-09 2.22403e-08
1.39919e-06 -2.82475e-09 2.12953e-08
1.37936e-06 -3.51719e-09 2.07381e-08
-1.48799e-08 6.19441e-06 -4.36065e-07
-8.34285e-09 8.36886e-06 -5.90988e-07
-8.4247e-09 7.25145e-06 -5.0337e-07
1.38851e-06 -4.30828e-09 2.27666e-08
1.40796e-06 -3.61701e-09 2.08705e-08
1.42753e-06 -2.93919e-09 2.12675e-08
1.41931e-06 -4.4688e-09 2.26877e-08
-6.84382e-09 7.24123e-06 -4.99113e-07
-1.48157e-08 6.18529e-06 -4.34619e-07
-6.96157e-09 8.35674e-06 -5.88679e-07
1.45958e-06 -3.02344e-09 2.12967e-08
1.43918e-06 -3.79016e-09 2.05609e-08
-1.52115e-08 6.17572e-06 -4.33927e-07
-7.29929e-09 7.22984e-06 -4.99873e-07
-1.07914e-09 4.15568e-06 -2.99173e-07
1.29798e-06 -1.96354e-09 1.21153e-08
1.30936e-06 -1.39774e-09 1.21081e-08
1.32092e-06 -1.13026e-09 1.16868e-08
2.57336e-09 5.1911e-06 -3.71905e-07
-3.15592e-09 3.11818e-06 -2.2584e-07
2.0039e-09 5.19833e-06 -3.71175e-07
-1.46673e-09 4.16144e-06 -2.99167e-07
-2.92329e-09 3.12257e-06 -2.25543e-07
1.58056e-09 5.20507e-06 -3.72136e-07
-1.70055e-09 4.16693e-06 -2.99275e-07
-2.85253e-09 3.12671e-06 -2.25535e-07
1.2681e-06 -1.85782e-09 1.1581e-08
1.27948e-06 -1.34657e-09 1.1863e-08
1.29087e-06 -1.09822e-09 1.14776e-08
1.23909e-06 -1.76775e-09 1.15127e-08
1.25026e-06 -1.2944e-09 1.1728e-08
1.26132e-06 -1.06725e-09 1.12055e-08
9.30979e-10 5.21208e-06 -3.71004e-07
-2.09441e-09 4.17255e-06 -2.98533e-07
-2.9038e-09 3.13094e-06 -2.25093e-07
7.61631e-10 5.21872e-06 -3.70847e-07
-2.30117e-09 4.1779e-06 -2.9858e-07
-2.87441e-09 3.13498e-06 -2.25164e-07
1.21051e-06 -1.67958e-09 1.13481e-08
1.22166e-06 -1.25869e-09 1.16265e-08
1.23256e-06 -1.05555e-09 1.09633e-08
1.18565e-06 -1.61027e-09 1.14138e-08
1.19659e-06 -1.22071e-09 1.15651e-08
1.20724e-06 -1.03492e-09 1.0717e-08
-9.36789e-10 2.07897e-06 -1.50399e-07
1.32838e-06 -5.28305e-10 1.08602e-08
1.33356e-06 -1.62059e-10 9.71584e-09
1.33526e-06 -2.70115e-11 -1.71084e-09
-4.95647e-10 1.03931e-06 -7.53071e-08
-1.07793e-09 2.08191e-06 -1.50011e-07
-4.37027e-10 1.0408e-06 -7.50433e-08
-1.02755e-09 2.0847e-06 -1.49918e-07
1.2982e-06 -5.27207e-10 1.05808e-08
1.30331e-06 -1.76298e-10 9.43872e-09
1.30502e-06 -5.91777e-11 -1.70139e-09
1.2684e-06 -4.92992e-10 1.04142e-08
1.27336e-06 -1.62105e-10 9.21001e-09
1.27502e-06 -6.50057e-11 -1.78559e-09
-3.7551e-10 1.04218e-06 -7.50731e-08
-1.13065e-09 2.08753e-06 -1.49735e-07
-3.36573e-10 1.04361e-06 -7.49206e-08
-1.12158e-09 2.09024e-06 -1.49565e-07
-2.78278e-10 1.04496e-06 -7.48416e-08
1.23948e-06 -4.84936e-10 1.02014e-08
1.24438e-06 -1.67996e-10 8.90242e-09
1.24603e-06 -9.1846e-11 -1.96006e-09
1.21392e-06 -4.55574e-10 1.0174e-08
1.2187e-06 -1.56463e-10 8.7243e-09
1.2203e-06 -9.77707e-11 -2.04396e-09
1.32469e-06 -2.02635e-09 1.26882e-08
1.33614e-06 -1.41197e-09 1.24974e-08
1.34805e-06 -1.16199e-09 1.18803e-08
3.10401e-09 5.18373e-06 -3.70658e-07
-9.78016e-10 4.1497e-06 -2.98471e-07
-3.21917e-09 3.11371e-06 -2.25082e-07
1.3559e-06 -2.14334e-09 1.28495e-08
1.36741e-06 -1.46914e-09 1.25296e-08
1.37944e-06 -1.20065e-09 1.18922e-08
-4.40728e-10 4.14406e-06 -2.96773e-07
-3.10305e-09 3.10945e-06 -2.23886e-07
2.34713e-09 5.17654e-06 -3.69869e-07
1.38341e-06 -2.25672e-09 1.32322e-08
1.39493e-06 -1.5002e-09 1.25981e-08
1.40736e-06 -1.24557e-09 1.20807e-08
2.10832e-09 5.16925e-06 -3.67551e-07
-3.54018e-10 4.13803e-06 -2.96969e-07
-3.29424e-09 3.10491e-06 -2.23957e-07
1.41575e-06 -2.40448e-09 1.40906e-08
1.4271e-06 -1.53984e-09 1.30015e-08
1.43979e-06 -1.29389e-09 1.25689e-08
-2.30534e-10 4.13186e-06 -2.95676e-07
-3.307e-09 3.10027e-06 -2.22994e-07
1.98133e-09 5.16138e-06 -3.66283e-07
1.44477e-06 -2.53748e-09 1.44714e-08
1.45614e-06 -1.57835e-09 1.31603e-08
1.46917e-06 -1.32647e-09 1.28921e-08
2.26093e-09 5.1538e-06 -3.65299e-07
-8.85284e-11 4.12569e-06 -2.95884e-07
-3.42795e-09 3.09563e-06 -2.23243e-07
1.47739e-06 -2.63367e-09 1.49193e-08
1.48896e-06 -1.62382e-09 1.32665e-08
1.50216e-06 -1.35776e-09 1.30485e-08
-2.46244e-10 4.11925e-06 -2.95438e-07
-3.68094e-09 3.09079e-06 -2.22591e-07
1.93989e-09 5.14559e-06 -3.65135e-07
1.35569e-06 -5.51749e-10 1.07489e-08
1.361e-06 -1.58148e-10 9.89922e-09
1.36273e-06 -5.30048e-12 -1.81013e-09
-9.26435e-10 2.07592e-06 -1.50496e-07
-4.88745e-10 1.0378e-06 -7.52312e-08
1.38724e-06 -5.67607e-10 1.09481e-08
1.39261e-06 -1.51294e-10 1.03201e-08
1.39434e-06 2.34345e-11 -1.46272e-09
-8.45964e-10 2.07307e-06 -1.49806e-07
-5.36337e-10 1.03634e-06 -7.4934e-08
1.41539e-06 -6.09226e-10 1.10298e-08
1.4209e-06 -1.59954e-10 1.06816e-08
1.42269e-06 3.14294e-11 -1.42108e-09
-9.11647e-10 2.07006e-06 -1.49585e-07
-6.01918e-10 1.03486e-06 -7.47692e-08
1.44798e-06 -6.64732e-10 1.12501e-08
1.45358e-06 -1.7208e-10 1.12389e-08
1.45536e-06 5.01085e-11 -1.34459e-09
-9.0211e-10 2.06696e-06 -1.48952e-07
-6.36449e-10 1.03328e-06 -7.45815e-08
1.47761e-06 -7.05935e-10 1.13904e-08
1.48334e-06 -1.8411e-10 1.14766e-08
1.48516e-06 5.72513e-11 -1.45643e-09
-9.67849e-10 2.06386e-06 -1.48956e-07
-7.26781e-10 1.03175e-06 -7.45511e-08
1.51079e-06 -7.50389e-10 1.15285e-08
1.51662e-06 -1.90643e-10 1.17284e-08
1.51845e-06 8.22159e-11 -1.43055e-09
-9.76238e-10 2.06061e-06 -1.48846e-07
-7.67733e-10 1.03012e-06 -7.44869e-08
1.12693e-15 -1.32873e-12 9.62539e-14
-4.37665e-16 -1.16991e-12 8.48246e-14
-5.79515e-16 -1.56955e-12 1.13988e-13
-8.9552e-16 -2.03819e-12 1.48543e-13
-5.00163e-10 -1.03932e-06 7.56506e-08
-1.09051e-09 -2.07897e-06 1.51227e-07
1.33516e-06 -1.43371e-11 1.51956e-09
1.33353e-06 1.41815e-10 -1.02494e-08
1.32832e-06 5.16047e-10 -1.07452e-08
-6.64934e-16 -2.24242e-12 1.62725e-13
-4.58234e-10 -1.04079e-06 7.54412e-08
-1.21933e-09 -2.0819e-06 1.50802e-07
-3.8342e-16 -2.41467e-12 1.74896e-13
-3.70661e-10 -1.04218e-06 7.5385e-08
-1.15494e-09 -2.08467e-06 1.50654e-07
1.30495e-06 1.98219e-11 1.53082e-09
1.30331e-06 1.55538e-10 -9.93335e-09
1.29817e-06 5.14187e-10 -1.04806e-08
1.27496e-06 2.58284e-11 1.59267e-09
1.27338e-06 1.41497e-10 -9.70252e-09
1.26839e-06 4.80532e-10 -1.03719e-08
1.24003e-06 4.592e-10 -1.035e-08
-2.29623e-16 -2.55996e-12 1.84876e-13
-3.57083e-10 -1.04359e-06 7.527e-08
-1.24452e-09 -2.08749e-06 1.50416e-07
8.84358e-18 -2.65072e-12 1.91242e-13
-3.09813e-10 -1.04495e-06 7.52906e-08
-1.24973e-09 -2.09021e-06 1.5046e-07
1.24596e-06 5.27803e-11 1.76141e-09
1.24438e-06 1.46929e-10 -9.39204e-09
1.22025e-06 5.67595e-11 1.84108e-09
1.21871e-06 1.31792e-10 -9.22945e-09
1.21392e-06 4.42215e-10 -1.02303e-08
-3.10365e-09 -3.11823e-06 2.26616e-07
-1.33829e-09 -4.15571e-06 3.00299e-07
1.32098e-06 1.13393e-09 -1.21165e-08
1.30938e-06 1.37856e-09 -1.22204e-08
1.29798e-06 1.94942e-09 -1.21988e-08
2.47849e-09 -5.19107e-06 3.72307e-07
-2.96461e-09 -3.12256e-06 2.2659e-07
-1.69317e-09 -4.16144e-06 3.00224e-07
1.89173e-09 -5.1983e-06 3.71679e-07
-2.88433e-09 -3.12669e-06 2.26489e-07
-1.86613e-09 -4.1669e-06 3.00287e-07
1.29095e-06 1.10035e-09 -1.18925e-08
1.2795e-06 1.32937e-09 -1.19898e-08
1.26811e-06 1.84599e-09 -1.16794e-08
1.26142e-06 1.06663e-09 -1.16472e-08
1.25029e-06 1.2776e-09 -1.18642e-08
1.2391e-06 1.75561e-09 -1.16161e-08
1.00876e-09 -5.20502e-06 3.72949e-07
-2.92765e-09 -3.13089e-06 2.2612e-07
-2.20432e-09 -4.17248e-06 2.99551e-07
7.88818e-10 -5.21207e-06 3.71555e-07
-2.97758e-09 -3.13493e-06 2.26636e-07
-2.52805e-09 -4.17783e-06 3.0051e-07
6.489e-10 -5.21872e-06 3.71273e-07
1.23264e-06 1.05472e-09 -1.14458e-08
1.22169e-06 1.24179e-09 -1.17595e-08
1.21053e-06 1.66739e-09 -1.14447e-08
1.20734e-06 1.03204e-09 -1.12336e-08
1.19662e-06 1.20274e-09 -1.17183e-08
1.18567e-06 1.59768e-09 -1.15212e-08
-6.18439e-16 -1.35093e-12 9.80549e-14
-4.52434e-16 -1.20134e-12 8.6991e-14
1.36264e-06 -2.40403e-11 1.68711e-09
1.36097e-06 1.44458e-10 -1.03435e-08
1.35563e-06 5.41203e-10 -1.06715e-08
-8.2912e-16 -1.80621e-12 1.31664e-13
-4.97914e-10 -1.0378e-06 7.55926e-08
-1.04352e-09 -2.07591e-06 1.51181e-07
1.39429e-06 -5.15643e-11 1.34675e-09
1.39262e-06 1.396e-10 -1.07574e-08
1.38721e-06 5.62733e-10 -1.08569e-08
-5.28047e-10 -1.03637e-06 7.52191e-08
-9.39298e-10 -2.07307e-06 1.50445e-07
1.42266e-06 -4.8856e-11 1.45929e-09
1.42092e-06 1.53721e-10 -1.09138e-08
1.41539e-06 6.02959e-10 -1.09765e-08
-6.07184e-10 -1.03487e-06 7.50869e-08
-9.77349e-10 -2.07008e-06 1.50215e-07
1.45535e-06 -5.75597e-11 1.43848e-09
1.45358e-06 1.66474e-10 -1.12812e-08
1.44798e-06 6.53045e-10 -1.12726e-08
-6.25163e-10 -1.0333e-06 7.47222e-08
-9.14192e-10 -2.06696e-06 1.49348e-07
1.48515e-06 -6.06321e-11 1.49836e-09
1.48333e-06 1.81165e-10 -1.14625e-08
1.47761e-06 6.97491e-10 -1.14326e-08
-7.29477e-10 -1.03174e-06 7.46674e-08
-9.63395e-10 -2.06386e-06 1.49178e-07
1.51843e-06 -8.34625e-11 1.48928e-09
1.51661e-06 1.89647e-10 -1.17019e-08
1.51079e-06 7.45029e-10 -1.15318e-08
-7.6904e-10 -1.03011e-06 7.45736e-08
-9.66621e-10 -2.0606e-06 1.48995e-07
1.34807e-06 1.16347e-09 -1.2257e-08
1.33615e-06 1.39297e-09 -1.26061e-08
1.32469e-06 2.01158e-09 -1.277e-08
-3.20553e-09 -3.1137e-06 2.26213e-07
-1.18759e-09 -4.1497e-06 2.99901e-07
3.02017e-09 -5.18371e-06 3.7107e-07
1.37951e-06 1.20658e-09 -1.22675e-08
1.36742e-06 1.45323e-09 -1.26443e-08
1.35589e-06 2.13169e-09 -1.29347e-08
-3.15353e-09 -3.10948e-06 2.24895e-07
-6.68239e-10 -4.1441e-06 2.97977e-07
2.24484e-09 -5.17654e-06 3.70334e-07
1.40743e-06 1.24308e-09 -1.24653e-08
1.39493e-06 1.48432e-09 -1.27094e-08
1.3834e-06 2.24415e-09 -1.33145e-08
-3.39116e-09 -3.10494e-06 2.24916e-07
-6.05138e-10 -4.13807e-06 2.98214e-07
1.9993e-09 -5.16925e-06 3.67984e-07
1.4398e-06 1.28771e-09 -1.27213e-08
1.42711e-06 1.52597e-09 -1.30709e-08
1.41575e-06 2.39278e-09 -1.41706e-08
-3.36066e-09 -3.10027e-06 2.2379e-07
-3.30955e-10 -4.13188e-06 2.96595e-07
1.93653e-09 -5.16137e-06 3.66805e-07
1.46916e-06 1.32454e-09 -1.29147e-08
1.45615e-06 1.56665e-09 -1.32093e-08
1.44478e-06 2.52449e-09 -1.45461e-08
-3.45952e-09 -3.0956e-06 2.23739e-07
-1.03792e-10 -4.12568e-06 2.96422e-07
2.14892e-09 -5.15379e-06 3.66098e-07
1.50215e-06 1.35932e-09 -1.30418e-08
1.48898e-06 1.61537e-09 -1.33058e-08
1.47739e-06 2.62094e-09 -1.49934e-08
-3.70316e-09 -3.09076e-06 2.22971e-07
-2.46236e-10 -4.11924e-06 2.95801e-07
1.85191e-09 -5.14557e-06 3.65838e-07
1.28391e-06 2.47105e-09 -2.06927e-08
-1.38609e-08 -6.22963e-06 4.44424e-07
-1.29065e-08 -6.23834e-06 4.43182e-07
-1.00444e-08 -7.30245e-06 5.13371e-07
-1.11403e-08 -8.42703e-06 5.96393e-07
1.26521e-06 3.03895e-09 -2.08454e-08
1.2478e-06 3.86616e-09 -2.07021e-08
1.25506e-06 2.42403e-09 -2.01775e-08
1.23695e-06 2.93546e-09 -2.06138e-08
1.21973e-06 3.75115e-09 -2.00646e-08
1.22674e-06 2.32076e-09 -2.00965e-08
-1.27474e-08 -6.24638e-06 4.44367e-07
-1.11634e-08 -7.31179e-06 5.13967e-07
-1.25482e-08 -8.43767e-06 5.96098e-07
-1.22595e-08 -6.25478e-06 4.43961e-07
-1.1106e-08 -7.32153e-06 5.12789e-07
-1.23979e-08 -8.44875e-06 5.95388e-07
1.2086e-06 2.85065e-09 -2.04268e-08
1.19158e-06 3.62735e-09 -1.98883e-08
1.19891e-06 2.26713e-09 -1.98491e-08
1.18145e-06 2.74111e-09 -2.04139e-08
1.16464e-06 3.4729e-09 -2.00429e-08
1.17431e-06 2.17659e-09 -1.94936e-08
-1.19202e-08 -6.26267e-06 4.44683e-07
-1.18214e-08 -7.33066e-06 5.13465e-07
-1.30595e-08 -8.45924e-06 5.94608e-07
1.22518e-06 4.3576e-09 -2.17396e-08
1.2004e-06 4.86981e-09 -2.30322e-08
-1.91807e-08 -9.66662e-06 6.82762e-07
-2.14411e-08 -1.10872e-05 7.67234e-07
-3.52987e-08 -1.27323e-05 8.73634e-07
1.17736e-06 5.88706e-09 -2.42945e-08
-1.85986e-08 -9.679e-06 6.80857e-07
-2.28205e-08 -1.11008e-05 7.66631e-07
1.19728e-06 4.23232e-09 -2.17217e-08
1.17273e-06 4.74167e-09 -2.28852e-08
1.15042e-06 5.64324e-09 -2.47115e-08
1.17032e-06 4.0765e-09 -2.15238e-08
1.14644e-06 4.57794e-09 -2.31055e-08
-3.79121e-08 -1.27479e-05 8.74512e-07
-1.89691e-08 -9.69133e-06 6.82849e-07
-2.53003e-08 -1.11144e-05 7.70469e-07
-3.88157e-08 -1.27635e-05 8.76474e-07
1.12381e-06 5.42655e-09 -2.51157e-08
-1.77733e-08 -9.70319e-06 6.84865e-07
-2.52038e-08 -1.11276e-05 7.68601e-07