# vtk DataFile Version 3.0
vtk output
ASCII
DATASET POLYDATA
POINTS 17776 float
0.162809 0.889822 -0.0505008
0.162934 0.879834 -0.0499609
0.152185 0.894916 -0.050061
0.152348 0.884928 -0.0494993
0.163069 0.86985 -0.0493918
0.163175 0.859864 -0.0488543
0.152505 0.874944 -0.0489569
0.141739 0.890018 -0.0488353
0.152625 0.864953 -0.0484355
0.141909 0.880025 -0.0482961
0.163335 0.849877 -0.0482028
0.152775 0.854962 -0.0478937
0.131233 0.895108 -0.0478247
0.163484 0.839888 -0.0475989
0.142098 0.870042 -0.0477144
0.152912 0.84498 -0.0473794
0.142239 0.860054 -0.0472532
0.131427 0.88512 -0.0473269
0.163629 0.829901 -0.047003
0.15307 0.834987 -0.0468012
0.131639 0.87513 -0.0467129
0.184498 0.839697 -0.0482351
0.195138 0.834626 -0.0478586
0.205629 0.839544 -0.047985
0.174059 0.834797 -0.047601
0.195264 0.82464 -0.0472172
0.184666 0.829716 -0.0475778
0.205732 0.829558 -0.0473467
0.21616 0.834479 -0.0474251
0.174236 0.824808 -0.0469626
0.184795 0.819732 -0.0469152
0.216252 0.824493 -0.0467866
0.226523 0.839394 -0.0476037
0.257453 0.8342 -0.0472455
0.277898 0.834085 -0.047205
0.247151 0.839264 -0.0475499
0.267665 0.839135 -0.047488
0.226611 0.829414 -0.0469626
0.247223 0.829279 -0.0469382
0.267718 0.829151 -0.0468742
0.236911 0.834341 -0.0471629
0.173886 0.844786 -0.0482324
0.195018 0.844609 -0.0484567
0.216064 0.84446 -0.0480553
0.184295 0.849681 -0.048938
0.205512 0.849524 -0.0486312
0.173274 0.894721 -0.0513384
0.173401 0.884732 -0.0507423
0.173511 0.874749 -0.0501318
0.173616 0.86476 -0.0495292
0.173744 0.85477 -0.0488891
0.194898 0.854592 -0.0491234
0.215966 0.854442 -0.0487154
0.184099 0.859673 -0.0496532
0.205386 0.859501 -0.0492864
0.194741 0.864573 -0.049784
0.21586 0.864422 -0.0493572
0.183905 0.869653 -0.0503333
0.194591 0.874564 -0.0504611
0.205279 0.869486 -0.0498933
0.215768 0.874409 -0.0499853
0.183772 0.879639 -0.0510438
0.20515 0.879465 -0.0505512
0.183663 0.88963 -0.0516947
0.194229 0.894528 -0.0517995
0.215557 0.894368 -0.0512858
0.194399 0.884545 -0.0511444
0.205043 0.889454 -0.0511801
0.215664 0.884388 -0.0506278
0.23682 0.84432 -0.0478173
0.257386 0.844185 -0.0478512
0.277847 0.844069 -0.0478083
0.226431 0.849379 -0.0482221
0.247077 0.849239 -0.0481856
0.267611 0.849109 -0.048121
0.226353 0.859357 -0.048847
0.226192 0.879321 -0.050115
0.226114 0.88931 -0.0507477
0.226277 0.869342 -0.0494645
0.236729 0.854294 -0.0485066
0.257326 0.854159 -0.048491
0.2778 0.854043 -0.0484441
0.247001 0.859224 -0.0487779
0.267547 0.859093 -0.0487392
0.236655 0.864277 -0.0491377
0.25726 0.86414 -0.0491419
0.277746 0.864024 -0.0490802
0.236577 0.87426 -0.0497607
0.257206 0.874122 -0.0497546
0.277709 0.874007 -0.0496862
0.246878 0.879175 -0.0500878
0.236437 0.894224 -0.0510605
0.257108 0.894085 -0.050988
0.277641 0.893969 -0.0509098
0.246826 0.889163 -0.0507005
0.267417 0.889035 -0.050597
0.236499 0.884242 -0.0504147
0.257151 0.884104 -0.0503733
0.277669 0.883987 -0.0503077
0.267451 0.87905 -0.0500098
0.246949 0.869201 -0.0494063
0.267504 0.869071 -0.0493712
0.287974 0.839031 -0.0477023
0.308328 0.838962 -0.0478213
0.328633 0.838887 -0.0479573
0.328676 0.828906 -0.0473231
0.298191 0.83401 -0.0475172
0.318535 0.833935 -0.0475967
0.298263 0.824029 -0.0468917
0.318585 0.823955 -0.0469646
0.288079 0.82906 -0.0470708
0.308413 0.828988 -0.0471615
0.369055 0.838738 -0.0481497
0.389272 0.838698 -0.0481105
0.33875 0.833848 -0.0476964
0.35897 0.83378 -0.0477066
0.379179 0.833727 -0.0479138
0.348861 0.838808 -0.0479168
0.379194 0.823747 -0.047278
0.348894 0.828826 -0.0472969
0.369073 0.828765 -0.0475067
0.389271 0.828724 -0.0474653
0.369091 0.818789 -0.0468542
0.38928 0.818749 -0.0468052
0.338799 0.823876 -0.0470129
0.359 0.823807 -0.0470638
0.298094 0.843984 -0.048143
0.318472 0.843907 -0.0482334
0.328578 0.848855 -0.0486277
0.287891 0.849002 -0.0483017
0.308262 0.848938 -0.0484757
0.298025 0.853959 -0.0487767
0.318424 0.853882 -0.0488846
0.287775 0.858973 -0.0489296
0.308173 0.858912 -0.0491476
0.328529 0.858834 -0.0492745
0.297926 0.863928 -0.049457
0.318363 0.863849 -0.0495567
0.308099 0.868884 -0.0498028
0.328482 0.868803 -0.0499271
0.287705 0.86895 -0.049552
0.287673 0.878925 -0.0501839
0.287653 0.888913 -0.0507713
0.318296 0.87382 -0.0502191
0.297856 0.873912 -0.0500751
0.318191 0.893785 -0.0514989
0.297719 0.893862 -0.0512884
0.307965 0.888841 -0.0510337
0.328389 0.888755 -0.0512136
0.297775 0.883881 -0.0506821
0.318254 0.883807 -0.0508453
0.308039 0.878862 -0.0504383
0.328438 0.878779 -0.0505923
0.379169 0.8437 -0.0485625
0.338707 0.84383 -0.0483516
0.358942 0.843761 -0.0483232
0.348819 0.848776 -0.0485883
0.36903 0.848715 -0.0487972
0.38926 0.848673 -0.0487644
0.338659 0.853798 -0.0490328
0.379154 0.853676 -0.0492102
0.358913 0.853737 -0.0489597
0.348785 0.858756 -0.0492123
0.369007 0.858695 -0.0494164
0.389248 0.858653 -0.0493985
0.338622 0.863776 -0.0496832
0.379146 0.863646 -0.0498877
0.358881 0.863707 -0.0496206
0.338577 0.873748 -0.0503586
0.338512 0.893703 -0.0516358
0.338551 0.883729 -0.0509836
0.368984 0.868665 -0.0500702
0.389247 0.868623 -0.0500532
0.348759 0.868733 -0.0498524
0.379129 0.873624 -0.0505319
0.358853 0.873685 -0.0502637
0.379114 0.893581 -0.0517897
0.379124 0.883599 -0.0511593
0.348693 0.88868 -0.0511954
0.368947 0.888619 -0.0513324
0.389238 0.888576 -0.0513416
0.358814 0.893641 -0.0515113
0.36896 0.878636 -0.0507266
0.389243 0.878593 -0.0507266
0.358832 0.88366 -0.0508878
0.348719 0.878703 -0.0505497
0.409415 0.838664 -0.0482321
0.429583 0.83864 -0.0482505
0.399355 0.833693 -0.0478451
0.419517 0.833661 -0.0479931
0.439635 0.833646 -0.0479198
0.419527 0.823683 -0.0473582
0.439636 0.823667 -0.0472827
0.409435 0.828692 -0.047593
0.429582 0.828668 -0.047615
0.40945 0.818717 -0.0469403
0.429588 0.818693 -0.0469608
0.399389 0.823723 -0.0471982
0.449694 0.838626 -0.0482039
0.46981 0.838615 -0.0482113
0.48991 0.838616 -0.0481748
0.459744 0.833629 -0.0479804
0.479845 0.833628 -0.0478648
0.499932 0.83363 -0.0479132
0.459741 0.823649 -0.0473527
0.479834 0.823648 -0.0472364
0.499912 0.82365 -0.0472871
0.449684 0.828653 -0.0475698
0.469783 0.828642 -0.0475807
0.489868 0.828643 -0.0475478
0.449687 0.818678 -0.046923
0.469777 0.818667 -0.0469294
0.489854 0.818667 -0.046895
0.419505 0.843634 -0.048632
0.439644 0.843619 -0.0485613
0.39933 0.843672 -0.0484667
0.409401 0.848639 -0.0488787
0.429577 0.848614 -0.0489002
0.399293 0.85364 -0.0491166
0.419495 0.853608 -0.0492796
0.439644 0.853593 -0.0492164
0.409385 0.858608 -0.0495221
0.429579 0.858584 -0.0495492
0.419489 0.863577 -0.0499339
0.439655 0.863562 -0.0498732
0.399274 0.863615 -0.0497622
0.409377 0.868587 -0.0501402
0.429574 0.868563 -0.0501853
0.399236 0.873586 -0.0504178
0.41948 0.873555 -0.0505834
0.439654 0.87354 -0.0505305
0.419477 0.883528 -0.0512271
0.439664 0.883512 -0.0511831
0.399223 0.883565 -0.0510462
0.40936 0.878556 -0.0508128
0.429573 0.878531 -0.0508581
0.409354 0.888538 -0.051431
0.429572 0.888513 -0.0514867
0.399195 0.893538 -0.051698
0.41947 0.893509 -0.0518683
0.439662 0.893493 -0.0518325
0.459761 0.843602 -0.0486152
0.499983 0.843605 -0.0485426
0.479857 0.843608 -0.0484922
0.449691 0.8486 -0.048851
0.469817 0.84859 -0.048856
0.489928 0.848591 -0.0488206
0.459764 0.853577 -0.0492599
0.479892 0.853577 -0.0491443
0.449701 0.858569 -0.049511
0.469844 0.858559 -0.0495074
0.489971 0.858562 -0.0494703
0.459783 0.863546 -0.0499106
0.479902 0.863553 -0.049787
0.4497 0.868549 -0.0501452
0.469851 0.86854 -0.0501396
0.489986 0.868542 -0.0501017
0.459786 0.873524 -0.0505605
0.479935 0.873524 -0.0504467
0.459806 0.883497 -0.0512065
0.44971 0.878517 -0.0508204
0.469876 0.878508 -0.0508064
0.490026 0.878511 -0.0507689
0.479946 0.883505 -0.0510821
0.449714 0.888499 -0.0514581
0.469884 0.888491 -0.0514352
0.490037 0.888494 -0.051393
0.45981 0.893478 -0.051846
0.479978 0.893479 -0.0517302
0.50001 0.863551 -0.0498409
0.500009 0.893485 -0.051763
0.500013 0.87353 -0.0504927
0.510089 0.838616 -0.0481751
0.53019 0.838615 -0.0482106
0.550306 0.838626 -0.0482019
0.520154 0.833628 -0.0478638
0.540255 0.833629 -0.0479787
0.520165 0.823648 -0.0472353
0.540258 0.823649 -0.0473511
0.510132 0.828643 -0.047547
0.530217 0.828642 -0.047579
0.550315 0.828654 -0.0475664
0.510146 0.818667 -0.0468938
0.530222 0.818667 -0.0469277
0.550312 0.818678 -0.046919
0.570417 0.83864 -0.0482483
0.590584 0.838664 -0.0482277
0.560364 0.833646 -0.0479173
0.580482 0.833662 -0.0479899
0.600645 0.833694 -0.0478418
0.560363 0.823667 -0.0472801
0.580473 0.823683 -0.0473553
0.570418 0.828668 -0.0476119
0.590564 0.828693 -0.0475887
0.570411 0.818693 -0.0469574
0.59055 0.818717 -0.0469362
0.60061 0.823723 -0.047195
0.499993 0.883503 -0.0511268
0.540238 0.843602 -0.048615
0.520143 0.843608 -0.0484928
0.510072 0.848591 -0.0488211
0.530182 0.84859 -0.0488559
0.550308 0.8486 -0.0488502
0.499996 0.853581 -0.0491897
0.520107 0.853577 -0.0491454
0.540235 0.853577 -0.0492603
0.510029 0.858562 -0.0494732
0.530156 0.85856 -0.0495095
0.550298 0.858569 -0.0495122
0.540216 0.863546 -0.0499135
0.520097 0.863554 -0.0497905
0.510014 0.868543 -0.0501063
0.530148 0.86854 -0.0501435
0.5503 0.868549 -0.0501477
0.520064 0.873525 -0.0504486
0.540213 0.873524 -0.0505617
0.540194 0.883497 -0.0512064
0.509973 0.878511 -0.0507717
0.530123 0.878509 -0.0508089
0.55029 0.878517 -0.0508212
0.520054 0.883505 -0.0510822
0.509963 0.888494 -0.0513897
0.530115 0.888491 -0.0514323
0.550286 0.888499 -0.051453
0.520021 0.89348 -0.0517191
0.540189 0.893479 -0.0518347
0.560356 0.843619 -0.0485604
0.580495 0.843634 -0.04863
0.600669 0.843672 -0.0484632
0.570423 0.848615 -0.0488983
0.590599 0.848639 -0.0488753
0.560356 0.853593 -0.0492153
0.580504 0.853609 -0.0492774
0.600707 0.85364 -0.0491146
0.570421 0.858584 -0.0495488
0.590615 0.858608 -0.0495208
0.560344 0.863562 -0.0498745
0.580511 0.863578 -0.0499337
0.600726 0.863616 -0.0497613
0.570426 0.868563 -0.0501858
0.590623 0.868587 -0.0501391
0.560345 0.87354 -0.0505296
0.58052 0.873555 -0.0505813
0.600763 0.873586 -0.0504169
0.560336 0.883512 -0.051181
0.580523 0.883528 -0.0512243
[...]
POINT_DATA 17776
VECTORS alpha float
1.35497e-06 -9.93883e-09 3.70737e-08
1.32258e-06 -9.62066e-09 4.16406e-08
-3.07207e-07 1.83103e-05 -1.24966e-06
-2.96859e-07 1.83393e-05 -1.25952e-06
1.27965e-06 -9.23056e-09 4.436e-08
1.25483e-06 -8.92923e-09 4.86697e-08
-2.84649e-07 1.83679e-05 -1.23119e-06
1.28779e-06 -9.29152e-09 -1.8606e-08
-2.8433e-07 1.83957e-05 -1.23776e-06
1.2575e-06 -8.94692e-09 -1.47869e-08
1.22581e-06 -8.66797e-09 4.99143e-08
-2.81828e-07 1.8424e-05 -1.22143e-06
-2.90022e-07 1.64694e-05 -1.07471e-06
1.1991e-06 -8.39824e-09 5.08286e-08
1.21703e-06 -8.55543e-09 -1.1101e-08
-2.80064e-07 1.8451e-05 -1.22813e-06
1.19461e-06 -8.29694e-09 -4.82052e-09
-2.81044e-07 1.6498e-05 -1.0876e-06
1.17208e-06 -8.13755e-09 5.34221e-08
-2.83794e-07 1.84764e-05 -1.23288e-06
-2.72713e-07 1.65269e-05 -1.06964e-06
1.2471e-06 -8.63582e-09 7.94005e-08
-1.92445e-07 1.92696e-05 -1.31459e-06
1.2815e-06 -8.30003e-09 6.92323e-08
-2.2308e-07 1.94577e-05 -1.30571e-06
-1.92143e-07 1.92946e-05 -1.32245e-06
1.21647e-06 -8.29962e-09 7.73067e-08
1.25243e-06 -7.98087e-09 6.78329e-08
-1.36607e-07 1.81053e-05 -1.23502e-06
-2.26173e-07 1.9484e-05 -1.2947e-06
1.19044e-06 -7.98818e-09 7.58294e-08
-1.38765e-07 1.81287e-05 -1.23896e-06
1.3139e-06 -7.71512e-09 4.86709e-08
-7.01998e-08 1.44392e-05 -9.94785e-07
-4.10501e-08 1.25973e-05 -8.63267e-07
1.34846e-06 -7.04695e-09 3.89384e-08
1.38249e-06 -6.16733e-09 3.03618e-08
1.28406e-06 -7.48791e-09 4.76102e-08
1.31821e-06 -6.77271e-09 3.9892e-08
1.35159e-06 -5.93041e-09 3.02382e-08
-9.34835e-08 1.63638e-05 -1.11864e-06
-2.1533e-07 1.9432e-05 -1.31337e-06
-1.87826e-07 1.92455e-05 -1.31909e-06
-1.32545e-07 1.8082e-05 -1.23595e-06
1.27801e-06 -8.92971e-09 8.29881e-08
1.31079e-06 -8.56497e-09 7.1423e-08
-2.34295e-07 1.92865e-05 -1.29248e-06
-2.19825e-07 1.93172e-05 -1.28891e-06
-2.09269e-07 1.93469e-05 -1.30167e-06
-2.12025e-07 1.93755e-05 -1.32298e-06
-2.12287e-07 1.94041e-05 -1.32406e-06
-1.906e-07 1.92185e-05 -1.3437e-06
-1.29121e-07 1.80557e-05 -1.23605e-06
1.31032e-06 -9.28536e-09 8.58847e-08
1.34286e-06 -8.86653e-09 7.34138e-08
-1.80827e-07 1.91921e-05 -1.33804e-06
-1.22732e-07 1.80303e-05 -1.2282e-06
1.34119e-06 -9.59823e-09 8.87254e-08
-1.74377e-07 1.91637e-05 -1.33105e-06
1.37239e-06 -9.18549e-09 7.51818e-08
-1.19791e-07 1.80035e-05 -1.22938e-06
1.38802e-06 -1.00718e-08 9.24879e-08
1.42043e-06 -9.62297e-09 7.83163e-08
1.42382e-06 -1.04588e-08 9.3663e-08
-1.53362e-07 1.91025e-05 -1.30964e-06
-1.2183e-07 1.79477e-05 -1.23339e-06
-1.57551e-07 1.91328e-05 -1.30942e-06
1.45683e-06 -9.98961e-09 7.96517e-08
-1.1899e-07 1.79755e-05 -1.22974e-06
-8.71768e-08 1.63429e-05 -1.11182e-06
-6.83299e-08 1.44191e-05 -9.89849e-07
-3.91704e-08 1.25795e-05 -8.55515e-07
1.34246e-06 -7.94792e-09 5.00316e-08
1.37823e-06 -7.29177e-09 3.84309e-08
1.41266e-06 -6.37584e-09 3.05806e-08
1.37392e-06 -8.17059e-09 5.1751e-08
1.45088e-06 -8.79454e-09 5.42202e-08
1.48764e-06 -9.12231e-09 5.40973e-08
1.40302e-06 -8.43408e-09 5.20002e-08
-7.78635e-08 1.63194e-05 -1.10642e-06
-6.3887e-08 1.43976e-05 -9.92356e-07
-3.49428e-08 1.25601e-05 -8.575e-07
1.41019e-06 -7.53216e-09 3.71594e-08
1.44547e-06 -6.59361e-09 3.08224e-08
-6.44334e-08 1.62959e-05 -1.09581e-06
-5.58719e-08 1.43757e-05 -9.86885e-07
-2.91877e-08 1.25405e-05 -8.54593e-07
-6.29237e-08 1.62731e-05 -1.09717e-06
-5.6524e-08 1.43545e-05 -9.88795e-07
-2.91047e-08 1.25215e-05 -8.4678e-07
1.48976e-06 -8.07919e-09 3.93546e-08
-6.45972e-08 1.62218e-05 -1.09662e-06
-5.90033e-08 1.43074e-05 -9.79044e-07
-3.11563e-08 1.24792e-05 -8.33604e-07
1.52756e-06 -8.39444e-09 3.89342e-08
1.56431e-06 -7.3968e-09 3.06214e-08
-6.20939e-08 1.62468e-05 -1.09661e-06
-5.53436e-08 1.43305e-05 -9.80925e-07
-2.78632e-08 1.25e-05 -8.3675e-07
1.52578e-06 -7.14271e-09 3.12738e-08
1.4404e-06 -7.75553e-09 3.6753e-08
1.47553e-06 -6.77238e-09 3.03974e-08
1.41282e-06 -5.0879e-09 2.24899e-08
1.44106e-06 -4.38018e-09 2.1842e-08
1.46813e-06 -3.92294e-09 2.29471e-08
1.43564e-06 -3.78648e-09 2.29819e-08
-1.74597e-08 1.09653e-05 -7.42678e-07
-1.84832e-08 9.55939e-06 -6.6933e-07
-1.82792e-08 1.0982e-05 -7.42097e-07
-1.93488e-08 9.57391e-06 -6.7053e-07
1.37994e-06 -4.87384e-09 2.31123e-08
1.40865e-06 -4.30732e-09 2.2855e-08
1.5112e-06 -2.64254e-09 2.01132e-08
1.53088e-06 -2.35624e-09 1.47609e-08
-1.07268e-08 8.33185e-06 -5.84913e-07
-7.88569e-09 7.21963e-06 -4.96388e-07
-1.30964e-08 6.16664e-06 -4.30607e-07
1.48925e-06 -3.39807e-09 1.92048e-08
-1.26418e-08 6.17633e-06 -4.32156e-07
1.45647e-06 -3.25238e-09 1.94544e-08
1.47769e-06 -2.57965e-09 2.01156e-08
1.49695e-06 -2.31584e-09 1.40552e-08
1.44779e-06 -2.47452e-09 1.98208e-08
1.4666e-06 -2.23228e-09 1.34838e-08
-1.15289e-08 8.34463e-06 -5.84322e-07
-7.99353e-09 7.23058e-06 -4.96788e-07
-1.39949e-08 1.09493e-05 -7.39971e-07
-1.6004e-08 9.54536e-06 -6.68283e-07
1.5006e-06 -3.99533e-09 2.33475e-08
1.44486e-06 -5.38602e-09 2.22087e-08
1.47209e-06 -4.48384e-09 2.11048e-08
-8.70681e-09 1.09317e-05 -7.39445e-07
-1.2587e-08 9.52961e-06 -6.68695e-07
1.47992e-06 -5.54555e-09 2.20477e-08
1.50681e-06 -4.48029e-09 2.09884e-08
1.53532e-06 -4.0712e-09 2.3859e-08
-3.22541e-09 1.09142e-05 -7.39082e-07
-8.16802e-09 9.51449e-06 -6.62683e-07
1.5392e-06 -4.55204e-09 2.00042e-08
1.56877e-06 -4.17852e-09 2.39242e-08
1.51136e-06 -5.75051e-09 2.12909e-08
1.56241e-06 -5.94672e-09 2.23637e-08
1.60157e-06 -6.19645e-09 2.17904e-08
-5.91289e-09 9.49866e-06 -6.61505e-07
-2.54853e-10 1.08963e-05 -7.39623e-07
-7.31403e-09 9.46486e-06 -6.56828e-07
7.94754e-10 1.08581e-05 -7.24863e-07
1.63265e-06 -4.98647e-09 1.67384e-08
1.66489e-06 -4.61516e-09 2.33462e-08
1.11262e-09 1.08775e-05 -7.29778e-07
-6.62458e-09 9.48177e-06 -6.59138e-07
1.59176e-06 -4.7687e-09 1.95015e-08
1.62271e-06 -4.38264e-09 2.45146e-08
-1.25753e-08 6.15728e-06 -4.28895e-07
-9.94703e-09 8.31881e-06 -5.86917e-07
-6.85753e-09 7.20847e-06 -4.98023e-07
1.52207e-06 -3.47387e-09 1.92077e-08
1.54373e-06 -2.75597e-09 1.9808e-08
1.5641e-06 -2.46297e-09 1.5047e-08
-7.30027e-09 8.30499e-06 -5.87138e-07
-1.13312e-08 6.14668e-06 -4.29152e-07
-5.18972e-09 7.19613e-06 -4.9969e-07
1.5572e-06 -3.60386e-09 1.90886e-08
1.57911e-06 -2.84472e-09 1.96736e-08
1.60018e-06 -2.54165e-09 1.57154e-08
-5.09923e-09 8.29098e-06 -5.85828e-07
-1.01703e-08 6.13633e-06 -4.27618e-07
-2.88599e-09 7.18409e-06 -4.99362e-07
-4.29614e-09 8.27681e-06 -5.84802e-07
-4.66863e-09 8.24797e-06 -5.81263e-07
-4.40738e-09 8.2624e-06 -5.83056e-07
1.61342e-06 -2.86561e-09 1.93981e-08
1.63528e-06 -2.56717e-09 1.61048e-08
1.59034e-06 -3.71458e-09 1.86325e-08
-9.53278e-09 6.12536e-06 -4.28615e-07
-1.67121e-09 7.17127e-06 -5.02204e-07
-1.09053e-08 6.10334e-06 -4.26435e-07
-9.68672e-09 6.11463e-06 -4.26605e-07
1.68846e-06 -3.93662e-09 1.91596e-08
1.71199e-06 -3.0887e-09 1.85745e-08
1.73587e-06 -2.75878e-09 1.72883e-08
-2.41383e-09 7.14562e-06 -5.04011e-07
1.66963e-06 -2.95202e-09 1.9486e-08
1.69262e-06 -2.63575e-09 1.72821e-08
-1.66578e-09 7.15882e-06 -5.01612e-07
1.64587e-06 -3.81421e-09 1.9648e-08
1.54384e-06 -1.30956e-09 1.28341e-08
1.55784e-06 -9.90172e-10 1.35667e-08
-2.15291e-09 5.13767e-06 -3.63044e-07
-8.56139e-10 4.11276e-06 -2.94518e-07
-2.42444e-09 3.08587e-06 -2.21996e-07
-1.07843e-09 4.1194e-06 -2.94023e-07
-2.43424e-09 3.09087e-06 -2.21811e-07
1.50939e-06 -1.28362e-09 1.26127e-08
1.52327e-06 -1.00374e-09 1.31024e-08
1.47865e-06 -1.23263e-09 1.2524e-08
1.49231e-06 -9.86244e-10 1.27598e-08
-2.2612e-09 5.14585e-06 -3.62774e-07
1.56706e-06 -6.67293e-10 8.3292e-09
1.57339e-06 -3.57129e-11 9.15252e-09
1.57572e-06 2.45554e-10 -3.45911e-09
-1.05421e-09 2.05735e-06 -1.47574e-07
-2.91936e-10 1.02849e-06 -7.4004e-08
1.12927e-15 -1.77387e-12 1.28081e-13
-9.8345e-10 2.06069e-06 -1.4781e-07
-1.98272e-10 1.03017e-06 -7.40572e-08
6.56397e-16 -1.32882e-12 9.57714e-14
1.53237e-06 -6.78499e-10 7.80576e-09
1.53865e-06 -7.42306e-11 8.78197e-09
1.54098e-06 1.54642e-10 -3.76637e-09
1.50118e-06 -6.13994e-10 7.93202e-09
1.50734e-06 -5.2715e-11 8.85751e-09
1.50962e-06 1.3366e-10 -3.69675e-09
-4.1995e-10 4.10646e-06 -2.94021e-07
-2.32379e-09 3.08111e-06 -2.2167e-07
-2.04789e-09 5.12956e-06 -3.62059e-07
1.57724e-06 -1.36237e-09 1.26741e-08
1.59153e-06 -1.0269e-09 1.36437e-08
-9.11313e-10 5.12081e-06 -3.612e-07
-4.52842e-11 4.0993e-06 -2.9343e-07
-2.23377e-09 3.07572e-06 -2.21273e-07
1.61411e-06 -1.38211e-09 1.28831e-08
1.62863e-06 -1.03771e-09 1.38785e-08
8.41838e-10 4.09237e-06 -2.91559e-07
-1.95578e-09 3.07048e-06 -2.19856e-07
-4.09768e-10 5.11185e-06 -3.60687e-07
1.64929e-06 -1.43919e-09 1.24371e-08
1.66413e-06 -1.06464e-09 1.36535e-08
2.54595e-10 5.1028e-06 -3.60877e-07
1.08113e-09 4.08499e-06 -2.90206e-07
-1.95316e-09 3.06493e-06 -2.18756e-07
1.2457e-09 4.07759e-06 -2.89885e-07
-2.09782e-09 3.05934e-06 -2.18463e-07
-2.13526e-10 5.09339e-06 -3.62064e-07
1.70748e-06 -1.52524e-09 1.27504e-08
1.7229e-06 -1.11656e-09 1.40214e-08
1.75126e-06 -1.62294e-09 1.23437e-08
1.76699e-06 -1.16013e-09 1.37208e-08
-3.34176e-10 5.08395e-06 -3.61962e-07
1.39051e-09 4.06982e-06 -2.89952e-07
-2.26382e-09 3.05349e-06 -2.18653e-07
-1.00222e-09 2.05415e-06 -1.47255e-07
1.98898e-15 -2.55302e-12 1.84181e-13
-3.53034e-10 1.02685e-06 -7.39013e-08
1.60096e-06 -6.90213e-10 8.55855e-09
1.60741e-06 -3.82173e-11 9.17598e-09
1.60981e-06 2.73612e-10 -3.54054e-09
-8.72729e-10 2.05054e-06 -1.46936e-07
-3.42508e-10 1.02508e-06 -7.3733e-08
1.63828e-06 -6.58363e-10 9.29641e-09
1.6448e-06 3.06149e-11 9.51649e-09
1.64719e-06 3.77878e-10 -3.4754e-09
-5.79698e-10 2.04702e-06 -1.46269e-07
-2.95932e-10 1.02327e-06 -7.34254e-08
1.67406e-06 -6.59363e-10 9.61847e-09
1.6808e-06 4.02075e-11 9.6644e-09
1.68326e-06 4.20496e-10 -3.35141e-09
-5.15921e-10 2.04329e-06 -1.45862e-07
-3.34116e-10 1.02143e-06 -7.31753e-08
-4.91935e-10 2.03954e-06 -1.45652e-07
1.73325e-06 -6.81267e-10 1.03951e-08
1.74022e-06 4.26801e-11 9.91827e-09
1.74277e-06 4.61549e-10 -3.46188e-09
-4.09351e-10 1.0195e-06 -7.31238e-08
1.77773e-06 -6.94884e-10 1.11707e-08
1.78488e-06 5.36117e-11 1.03284e-08
1.78751e-06 5.23105e-10 -2.86771e-09
-5.45069e-10 2.03562e-06 -1.45787e-07
-5.11207e-10 1.01757e-06 -7.31089e-08
4.02259e-15 -5.61738e-12 4.04287e-13
1.2012e-14 -1.54572e-11 1.11479e-12
-1.35466e-15 -8.1007e-12 5.83628e-13
1.57571e-06 -2.41034e-10 3.54727e-09
1.57338e-06 3.99255e-11 -9.08396e-09
1.56706e-06 6.72457e-10 -8.22883e-09
-2.91973e-10 -1.02849e-06 7.41338e-08
-1.04519e-09 -2.05735e-06 1.47843e-07
-1.99186e-10 -1.03016e-06 7.41383e-08
-9.72926e-10 -2.06069e-06 1.47948e-07
1.54096e-06 -1.49717e-10 3.84862e-09
1.53864e-06 7.9283e-11 -8.73627e-09
1.53237e-06 6.79693e-10 -7.7634e-09
1.50961e-06 -1.30996e-10 3.7602e-09
1.50733e-06 5.54815e-11 -8.82641e-09
1.50118e-06 6.12276e-10 -7.93093e-09
1.55783e-06 1.00187e-09 -1.34911e-08
1.54385e-06 1.31099e-09 -1.28548e-08
-2.44094e-09 -3.08584e-06 2.22504e-07
-8.51171e-10 -4.11273e-06 2.9509e-07
-2.22515e-09 -5.13763e-06 3.63805e-07
-2.45258e-09 -3.09085e-06 2.22175e-07
-1.07435e-09 -4.11939e-06 2.94364e-07
1.52327e-06 1.01246e-09 -1.30671e-08
1.5094e-06 1.28201e-09 -1.26411e-08
1.49231e-06 9.91618e-10 -1.27478e-08
1.47866e-06 1.22775e-09 -1.25582e-08
-2.33804e-09 -5.14583e-06 3.63453e-07
2.51689e-15 -1.13421e-11 8.16229e-13
-9.93693e-10 -2.05414e-06 1.47593e-07
-3.52982e-10 -1.02685e-06 7.40649e-08
1.60981e-06 -2.73509e-10 3.5876e-09
1.60741e-06 3.86403e-11 -9.13745e-09
1.60098e-06 6.94196e-10 -8.44801e-09
-1.06473e-15 -3.82286e-12 2.76827e-13
-3.41955e-10 -1.02507e-06 7.393e-08
-8.74654e-10 -2.05054e-06 1.47364e-07
1.6472e-06 -3.82607e-10 3.53536e-09
1.64481e-06 -3.4967e-11 -9.45976e-09
1.6383e-06 6.56804e-10 -9.14101e-09
-5.75704e-10 -2.04702e-06 1.46711e-07
-2.92348e-10 -1.02327e-06 7.36292e-08
1.68326e-06 -4.23636e-10 3.41458e-09
1.68081e-06 -4.26863e-11 -9.59742e-09
1.67408e-06 6.58676e-10 -9.43445e-09
-3.33304e-10 -1.02144e-06 7.33427e-08
-5.20978e-10 -2.0433e-06 1.46286e-07
-4.90346e-10 -2.03956e-06 1.45984e-07
1.74277e-06 -4.66319e-10 3.48736e-09
1.74024e-06 -4.67754e-11 -9.87688e-09
1.73328e-06 6.78605e-10 -1.02648e-08
-4.05434e-10 -1.01952e-06 7.32204e-08
1.78752e-06 -5.35914e-10 2.8139e-09
1.7849e-06 -6.56689e-11 -1.03356e-08
1.77777e-06 6.85528e-10 -1.12026e-08
-4.94196e-10 -1.01761e-06 7.3006e-08
-5.53779e-10 -2.03565e-06 1.45779e-07
-2.34065e-09 -3.08107e-06 2.22216e-07
-4.12709e-10 -4.10643e-06 2.94621e-07
-2.11155e-09 -5.12952e-06 3.62879e-07
1.59154e-06 1.03144e-09 -1.35773e-08
1.57726e-06 1.35854e-09 -1.26975e-08
-2.2616e-09 -3.0757e-06 2.21921e-07
-6.54735e-11 -4.09928e-06 2.94179e-07
-9.43238e-10 -5.12077e-06 3.61735e-07
1.62865e-06 1.03621e-09 -1.37691e-08
1.61414e-06 1.37315e-09 -1.28776e-08
-1.97609e-09 -3.07047e-06 2.20439e-07
8.32569e-10 -4.09235e-06 2.92224e-07
-4.26211e-10 -5.1118e-06 3.61109e-07
1.66416e-06 1.06337e-09 -1.35144e-08
1.64934e-06 1.43332e-09 -1.24188e-08
-1.98016e-09 -3.06492e-06 2.19329e-07
1.05823e-09 -4.08498e-06 2.90967e-07
2.15687e-10 -5.10277e-06 3.61272e-07
-2.11266e-09 -3.05934e-06 2.18892e-07
1.23685e-09 -4.07758e-06 2.90553e-07
1.72294e-06 1.11297e-09 -1.39143e-08
1.70753e-06 1.52085e-09 -1.26972e-08
-2.7617e-10 -5.09338e-06 3.62409e-07
1.76705e-06 1.14917e-09 -1.37223e-08
1.75133e-06 1.61783e-09 -1.23949e-08
-2.178e-09 -3.05351e-06 2.18587e-07
1.43459e-09 -4.06983e-06 2.90042e-07
-4.89176e-10 -5.08402e-06 3.61643e-07
1.51122e-06 2.63412e-09 -2.02901e-08
-1.3156e-08 -6.16663e-06 4.31211e-07
-7.98073e-09 -7.21961e-06 4.97497e-07
1.53044e-06 2.41753e-09 -1.44664e-08
1.48927e-06 3.39255e-09 -1.93545e-08
-1.27136e-08 -6.17633e-06 4.32677e-07
1.49696e-06 2.30664e-09 -1.41288e-08
1.4777e-06 2.57091e-09 -2.0298e-08
1.45648e-06 3.24673e-09 -1.96029e-08
-1.15951e-08 -8.33157e-06 5.86169e-07
1.4666e-06 2.223e-09 -1.35532e-08
1.4478e-06 2.46527e-09 -2.00075e-08
-8.09342e-09 -7.23057e-06 4.97833e-07
-1.16326e-08 -8.34464e-06 5.85168e-07
1.46815e-06 3.91912e-09 -2.30353e-08
1.44108e-06 4.37618e-09 -2.19004e-08
1.41284e-06 5.08469e-09 -2.25356e-08
1.43566e-06 3.78406e-09 -2.30783e-08
-1.8622e-08 -9.55939e-06 6.69843e-07
-1.75359e-08 -1.09653e-05 7.43121e-07
-1.94863e-08 -9.57392e-06 6.71033e-07
-1.83496e-08 -1.0982e-05 7.42521e-07
1.40867e-06 4.30478e-09 -2.29208e-08
1.37996e-06 4.87101e-09 -2.31631e-08
-1.26238e-08 -6.15726e-06 4.2955e-07
-6.94623e-09 -7.20844e-06 4.99159e-07
-1.00309e-08 -8.3188e-06 5.87868e-07
1.56411e-06 2.47101e-09 -1.50613e-08
1.54375e-06 2.76162e-09 -1.99097e-08
1.52208e-06 3.47824e-09 -1.92902e-08
-1.13397e-08 -6.14664e-06 4.29575e-07
-7.2396e-09 -8.30495e-06 5.87539e-07
-5.21356e-09 -7.19608e-06 5.00401e-07
1.6002e-06 2.5453e-09 -1.56981e-08
1.57913e-06 2.84686e-09 -1.971e-08
1.55722e-06 3.60498e-09 -1.91107e-08
-1.01653e-08 -6.13627e-06 4.27923e-07
-2.90484e-09 -7.18403e-06 4.99945e-07
-5.03888e-09 -8.2909e-06 5.86062e-07
1.63531e-06 2.57468e-09 -1.60745e-08
1.61346e-06 2.87217e-09 -1.93968e-08
1.59038e-06 3.72044e-09 -1.86243e-08
-9.54986e-09 -6.12532e-06 4.28906e-07
-1.69591e-09 -7.17123e-06 5.02572e-07
-1.10049e-08 -6.10335e-06 4.26746e-07
-9.73462e-09 -6.11461e-06 4.2689e-07
1.73595e-06 2.76978e-09 -1.73114e-08
1.71207e-06 3.09957e-09 -1.85783e-08
1.68854e-06 3.94857e-09 -1.91604e-08
-2.51311e-09 -7.14562e-06 5.04233e-07
1.69266e-06 2.64377e-09 -1.72336e-08
1.66968e-06 2.95753e-09 -1.94533e-08
-1.69057e-09 -7.1588e-06 5.01777e-07
1.64593e-06 3.81798e-09 -1.96279e-08
-4.25337e-09 -8.27672e-06 5.84992e-07
-4.74467e-09 -8.2479e-06 5.81524e-07
-4.38242e-09 -8.26232e-06 5.83165e-07
-1.61526e-08 -9.54537e-06 6.68809e-07
-1.4083e-08 -1.09493e-05 7.40438e-07
1.50065e-06 3.99835e-09 -2.34299e-08
1.47213e-06 4.48207e-09 -2.11593e-08
1.44487e-06 5.37679e-09 -2.2213e-08
-1.26698e-08 -9.5296e-06 6.6901e-07
-8.75833e-09 -1.09317e-05 7.39709e-07
1.53538e-06 4.07195e-09 -2.39357e-08
1.50686e-06 4.47589e-09 -2.10372e-08
1.47994e-06 5.53307e-09 -2.20449e-08
-8.24331e-09 -9.51443e-06 6.62953e-07
-3.26774e-09 -1.09141e-05 7.39298e-07
1.56884e-06 4.17932e-09 -2.39934e-08
1.53927e-06 4.54743e-09 -2.00461e-08
1.5114e-06 5.73725e-09 -2.12807e-08
-5.94856e-09 -9.49859e-06 6.61623e-07
-2.69881e-10 -1.08962e-05 7.39715e-07
-7.25374e-09 -9.4648e-06 6.56557e-07
1.66499e-06 4.61834e-09 -2.33557e-08
1.63274e-06 4.98313e-09 -1.67395e-08
8.43294e-10 -1.08581e-05 7.24657e-07
-6.63378e-09 -9.48171e-06 6.59147e-07
1.11391e-09 -1.08774e-05 7.29797e-07
1.62279e-06 4.38399e-09 -2.45446e-08
1.59184e-06 4.76528e-09 -1.95177e-08
1.56246e-06 5.93485e-09 -2.23379e-08
1.60164e-06 6.18257e-09 -2.17544e-08
1.31392e-06 7.71402e-09 -4.8663e-08
-4.10516e-08 -1.25973e-05 8.63439e-07
-7.01417e-08 -1.44392e-05 9.94844e-07
1.3825e-06 6.16225e-09 -3.03873e-08
1.34847e-06 7.04528e-09 -3.89374e-08
1.35161e-06 5.92575e-09 -3.02692e-08
1.31822e-06 6.77104e-09 -3.9891e-08
1.28407e-06 7.4863e-09 -4.76096e-08
-9.34799e-08 -1.63638e-05 1.11865e-06
1.24712e-06 8.63645e-09 -7.93987e-08
-1.92429e-07 -1.92696e-05 1.31459e-06
1.28152e-06 8.29909e-09 -6.92276e-08
-1.92127e-07 -1.92946e-05 1.32245e-06
1.25244e-06 7.97955e-09 -6.78329e-08
1.21648e-06 8.29998e-09 -7.73074e-08
-1.36598e-07 -1.81053e-05 1.23503e-06
-2.23051e-07 -1.94577e-05 1.30568e-06
1.19045e-06 7.98852e-09 -7.58298e-08
-1.38754e-07 -1.81287e-05 1.23897e-06
-2.26143e-07 -1.9484e-05 1.29467e-06
-3.9173e-08 -1.25795e-05 8.55686e-07
-6.82732e-08 -1.44191e-05 9.89912e-07
-8.71755e-08 -1.6343e-05 1.11183e-06
1.41267e-06 6.36606e-09 -3.05741e-08
1.37825e-06 7.28751e-09 -3.84105e-08
1.34248e-06 7.94581e-09 -5.0009e-08
-3.49927e-08 -1.25601e-05 8.57727e-07
-6.38783e-08 -1.43976e-05 9.92488e-07
-7.79093e-08 -1.63194e-05 1.1065e-06
1.44549e-06 6.58032e-09 -3.08089e-08
1.41022e-06 7.52473e-09 -3.71376e-08
-2.92239e-08 -1.25404e-05 8.54763e-07
-5.58471e-08 -1.43756e-05 9.86955e-07
-6.44591e-08 -1.62958e-05 1.0958e-06
-2.91283e-08 -1.25214e-05 8.46862e-07
-5.65113e-08 -1.43544e-05 9.88828e-07
-6.29211e-08 -1.6273e-05 1.09714e-06
1.48982e-06 8.0722e-09 -3.93328e-08
-3.11577e-08 -1.24792e-05 8.33521e-07
-5.90366e-08 -1.43074e-05 9.79074e-07
-6.45848e-08 -1.62218e-05 1.09659e-06
1.56439e-06 7.38115e-09 -3.05915e-08
1.52764e-06 8.38746e-09 -3.89123e-08
-2.78828e-08 -1.24999e-05 8.3681e-07
-5.5348e-08 -1.43304e-05 9.80995e-07
-6.20863e-08 -1.62467e-05 1.09658e-06
1.52584e-06 7.13068e-09 -3.12477e-08
1.47556e-06 6.75814e-09 -3.0377e-08
1.44045e-06 7.74861e-09 -3.67313e-08
1.37395e-06 8.16507e-09 -5.17287e-08
1.45095e-06 8.7894e-09 -5.41982e-08
1.48773e-06 9.11723e-09 -5.40756e-08
1.40308e-06 8.42895e-09 -5.19781e-08
-1.87813e-07 -1.92455e-05 1.31909e-06
-1.32538e-07 -1.8082e-05 1.23596e-06
-2.15302e-07 -1.9432e-05 1.31334e-06
1.27805e-06 8.93045e-09 -8.29868e-08
1.31083e-06 8.56465e-09 -7.14074e-08
-1.90622e-07 -1.92185e-05 1.34375e-06
-1.29156e-07 -1.80557e-05 1.2361e-06
1.3429e-06 8.8628e-09 -7.33981e-08
1.31037e-06 9.28738e-09 -8.58863e-08
-1.80822e-07 -1.91921e-05 1.33799e-06
-1.22743e-07 -1.80302e-05 1.22816e-06
-1.74348e-07 -1.91636e-05 1.33099e-06
1.34125e-06 9.60052e-09 -8.87282e-08
1.37245e-06 9.18208e-09 -7.51665e-08
-1.19775e-07 -1.80034e-05 1.22933e-06
1.42051e-06 9.61964e-09 -7.83013e-08
1.38811e-06 1.00744e-08 -9.24919e-08
-1.53321e-07 -1.91024e-05 1.30953e-06
-1.21794e-07 -1.79477e-05 1.23329e-06
1.45693e-06 9.9864e-09 -7.96372e-08
-1.57516e-07 -1.91327e-05 1.30935e-06
-1.18969e-07 -1.79754e-05 1.22969e-06
1.42392e-06 1.04617e-08 -9.36683e-08
-2.34247e-07 -1.92864e-05 1.29238e-06
-2.19776e-07 -1.93171e-05 1.28881e-06
-2.09219e-07 -1.93468e-05 1.30157e-06
-2.11985e-07 -1.93754e-05 1.32288e-06
-2.1226e-07 -1.94041e-05 1.32402e-06
1.35506e-06 9.94178e-09 -3.70753e-08
1.32266e-06 9.62342e-09 -4.16422e-08
-3.07483e-07 -1.83102e-05 1.24955e-06
-2.97141e-07 -1.83392e-05 1.25937e-06
1.27972e-06 9.23309e-09 -4.43615e-08
1.25488e-06 8.93158e-09 -4.86716e-08
-2.84936e-07 -1.83678e-05 1.231e-06
1.28789e-06 9.29468e-09 1.86005e-08
-2.84386e-07 -1.83955e-05 1.23772e-06
1.25759e-06 8.94989e-09 1.47854e-08
1.22585e-06 8.66912e-09 -4.99145e-08
-2.81808e-07 -1.8424e-05 1.22139e-06
-2.90096e-07 -1.64692e-05 1.07473e-06
1.19912e-06 8.39918e-09 -5.08285e-08
1.21708e-06 8.55813e-09 1.10961e-08
-2.80043e-07 -1.8451e-05 1.2281e-06
1.19466e-06 8.29943e-09 4.81699e-09
-2.81121e-07 -1.64979e-05 1.08758e-06