# vtk DataFile Version 3.0
vtk output
ASCII
DATASET POLYDATA
POINTS 27472 float
0.151519 1.3799 -0.077834
0.151839 1.36991 -0.077238
0.140064 1.38506 -0.0764376
0.152172 1.35993 -0.0766108
0.140444 1.37507 -0.0758353
0.152499 1.34994 -0.0759809
0.140816 1.36508 -0.0752234
0.152815 1.33995 -0.0753631
0.153112 1.32997 -0.074738
0.141207 1.35509 -0.0745789
0.129238 1.38023 -0.0739089
0.141532 1.3451 -0.0739689
0.153406 1.31998 -0.0741179
0.129659 1.37024 -0.0733035
0.14183 1.33511 -0.0734108
0.153672 1.30999 -0.0735312
0.130028 1.36025 -0.0727465
0.153927 1.3 -0.0729391
0.142125 1.32513 -0.0728354
0.130341 1.35025 -0.0722133
0.142429 1.31514 -0.0722327
0.118207 1.38538 -0.0716534
0.154138 1.29002 -0.0723862
0.130644 1.34026 -0.0716882
0.154362 1.28003 -0.0717945
0.142702 1.30515 -0.0716417
0.154517 1.27004 -0.0714011
0.130944 1.33027 -0.0711403
0.11857 1.37539 -0.0711286
0.142966 1.29516 -0.0710584
0.154719 1.26005 -0.0709182
0.131272 1.32028 -0.0705176
0.118932 1.3654 -0.0706021
0.154886 1.25006 -0.0704515
0.143139 1.28517 -0.0705879
0.31657 1.21343 -0.0712089
0.30622 1.20852 -0.0708475
0.32694 1.20838 -0.0709642
0.295837 1.21358 -0.0709987
0.189029 1.21468 -0.070477
0.211154 1.21442 -0.0704107
0.285545 1.20868 -0.07046
0.25415 1.21395 -0.070576
0.275178 1.21376 -0.0706106
0.316613 1.20346 -0.0705344
0.459433 1.21289 -0.07228
0.357664 1.21319 -0.0719801
0.378085 1.2131 -0.0720364
0.398378 1.21302 -0.0721881
0.44927 1.20791 -0.0720309
0.418753 1.21297 -0.0722003
0.439102 1.21292 -0.0722805
0.479735 1.21287 -0.072186
0.499965 1.21286 -0.072251
0.347392 1.20825 -0.0715418
0.367932 1.20816 -0.0716962
0.388271 1.20808 -0.0717628
0.408576 1.20801 -0.0718561
0.337047 1.2133 -0.0716288
0.439115 1.20295 -0.07163
0.45943 1.20292 -0.0716306
0.499959 1.20289 -0.0716043
0.428958 1.20796 -0.0718885
0.469577 1.2079 -0.0718855
0.489872 1.20788 -0.0718703
0.35773 1.20322 -0.071313
0.378136 1.20313 -0.0713785
0.398416 1.20306 -0.0715264
0.428975 1.19799 -0.0712439
0.449272 1.19794 -0.0713887
0.469581 1.19793 -0.0712342
0.48987 1.19791 -0.0712238
0.418786 1.203 -0.0715595
0.479719 1.20291 -0.071543
0.398442 1.19308 -0.0708646
0.347466 1.19828 -0.0709058
0.367988 1.19819 -0.0710335
0.388311 1.1981 -0.0711044
0.408606 1.19804 -0.0711846
0.337136 1.20333 -0.0709923
0.418808 1.19303 -0.0709096
0.439122 1.19298 -0.0709801
0.459424 1.19295 -0.0709762
0.479714 1.19294 -0.0708832
0.388339 1.18813 -0.0704646
0.408629 1.18807 -0.0705264
0.357792 1.19325 -0.0706561
0.378185 1.19316 -0.070729
0.428986 1.18802 -0.0706027
0.44927 1.18798 -0.0707423
0.469565 1.18796 -0.0705913
0.489841 1.18794 -0.0705883
0.200099 1.21954 -0.070789
0.188776 1.22466 -0.0711266
0.210944 1.2244 -0.0711073
0.199873 1.22952 -0.0714474
0.188551 1.23464 -0.0717391
0.19966 1.2395 -0.0720517
0.199452 1.24948 -0.0726996
0.176909 1.24975 -0.0724698
0.188111 1.25461 -0.0730194
0.199238 1.25946 -0.0733677
0.18789 1.26458 -0.0736754
0.199046 1.26944 -0.0740446
0.176421 1.26972 -0.0737391
0.176691 1.25974 -0.0730812
0.165493 1.26488 -0.0725958
0.188333 1.24463 -0.072418
0.177166 1.23977 -0.0718686
0.16574 1.2549 -0.0719975
0.177422 1.22979 -0.0712342
0.166088 1.24491 -0.071315
0.210598 1.24436 -0.0724198
0.232593 1.24412 -0.0720991
0.221573 1.24923 -0.0725685
0.210424 1.25434 -0.0730706
0.232433 1.2541 -0.0727818
0.221409 1.2592 -0.0732448
0.210258 1.26432 -0.0737337
0.232278 1.26407 -0.0734605
0.221241 1.26918 -0.0739446
0.221751 1.23925 -0.0718959
0.210779 1.23438 -0.0717826
0.221922 1.22927 -0.0712332
0.232773 1.23414 -0.0714275
0.187656 1.27456 -0.0743447
0.165114 1.27486 -0.0731971
0.198856 1.27942 -0.0747361
0.17616 1.2797 -0.0743813
0.164698 1.29483 -0.0743463
0.164914 1.28485 -0.0737379
0.187427 1.28454 -0.0749853
0.198653 1.2894 -0.0753667
0.187175 1.29452 -0.07562
0.175934 1.28968 -0.0749335
0.198428 1.29938 -0.0759953
0.175644 1.29966 -0.0755514
0.210071 1.2743 -0.0744134
0.232111 1.27405 -0.0741484
0.221064 1.27916 -0.0746219
0.209902 1.28427 -0.0750492
0.231969 1.28402 -0.074801
0.209699 1.29425 -0.075674
0.220893 1.28913 -0.0752668
0.231797 1.294 -0.0754513
0.22071 1.29911 -0.0758777
0.232913 1.22416 -0.0707734
0.177682 1.21981 -0.0706048
0.222093 1.21929 -0.0705333
0.166377 1.23493 -0.0706869
0.264653 1.21884 -0.0708731
0.254028 1.22393 -0.0711894
0.275088 1.22374 -0.0712655
0.24328 1.24899 -0.0724918
0.243135 1.25897 -0.073153
0.243435 1.23901 -0.0718223
0.243578 1.22904 -0.0711681
0.264555 1.22882 -0.0715051
0.274999 1.23371 -0.0719191
0.264454 1.23879 -0.0721783
0.274915 1.24368 -0.072592
0.253797 1.24388 -0.0724667
0.285249 1.24858 -0.0730746
0.264345 1.24877 -0.0728565
0.274832 1.25366 -0.0732696
0.253676 1.25386 -0.0731225
0.285186 1.25856 -0.073729
0.264247 1.25874 -0.073521
0.253912 1.23391 -0.0718328
0.243707 1.21906 -0.070527
0.306153 1.21849 -0.0715012
0.326885 1.21835 -0.0716298
0.285467 1.21866 -0.0711124
0.285396 1.22863 -0.0717532
0.285321 1.23861 -0.0724182
0.316502 1.22341 -0.0718833
0.295763 1.22356 -0.0716546
0.316439 1.23338 -0.0725498
0.326824 1.22833 -0.072272
0.306085 1.22846 -0.0721451
0.326762 1.2383 -0.0729639
0.306018 1.23844 -0.0728388
0.295689 1.23353 -0.0723479
0.316367 1.24335 -0.0732735
0.295624 1.2435 -0.0730456
0.326691 1.24827 -0.0736569
0.305949 1.24841 -0.0735388
0.316299 1.25332 -0.0739664
0.295555 1.25347 -0.0737296
0.326631 1.25824 -0.0743427
0.305891 1.25838 -0.0742209
0.243014 1.26895 -0.0737806
0.242859 1.27892 -0.0744469
0.242736 1.2889 -0.075083
0.242575 1.29888 -0.0757382
0.274757 1.26363 -0.0739352
0.25357 1.26383 -0.0737715
0.285111 1.26853 -0.074383
0.264143 1.26871 -0.0741809
0.253456 1.27381 -0.0744124
0.274669 1.27361 -0.0745956
0.285016 1.2785 -0.0750385
0.264033 1.27869 -0.0748274
0.253326 1.28378 -0.0750511
0.27457 1.28358 -0.075251
0.284931 1.28848 -0.0756684
0.263923 1.28866 -0.0754284
0.25319 1.29376 -0.0756696
0.274483 1.29355 -0.0758807
0.284857 1.29845 -0.0763196
0.263823 1.29864 -0.0760412
0.316229 1.26329 -0.0746824
0.295487 1.26344 -0.0744323
0.326563 1.26821 -0.0750451
0.305817 1.26835 -0.0749235
0.316146 1.27326 -0.0753737
0.295406 1.27342 -0.0751074
0.326487 1.27818 -0.0757189
0.305733 1.27832 -0.0755903
0.31607 1.28323 -0.0760336
0.295326 1.28339 -0.0757498
0.326429 1.28815 -0.0763757
0.305665 1.28829 -0.0762359
0.31602 1.2932 -0.076703
0.295266 1.29336 -0.0764138
0.305611 1.29826 -0.076905
0.326369 1.29812 -0.0770508
0.164506 1.30482 -0.074876
0.186925 1.3045 -0.0761496
0.198203 1.30936 -0.0765682
0.175353 1.30964 -0.0761021
0.164333 1.31481 -0.0753823
0.186672 1.31448 -0.0767544
0.17509 1.31963 -0.0767576
0.197988 1.31934 -0.0771923
0.164055 1.3248 -0.0760278
0.186398 1.32446 -0.0773858
0.174853 1.32961 -0.077385
0.197764 1.32931 -0.0777547
0.163786 1.33478 -0.0766573
0.186155 1.33444 -0.0779602
0.163528 1.34477 -0.077274
0.174643 1.33959 -0.0780006
0.197547 1.33929 -0.078372
0.18589 1.34442 -0.0786291
0.209492 1.30423 -0.0762951
0.231622 1.30398 -0.0761058
0.220518 1.30909 -0.0765199
0.209298 1.31421 -0.0769313
0.231459 1.31395 -0.0767652
0.220353 1.31907 -0.077153
0.242272 1.31883 -0.0770156
0.209108 1.32419 -0.0775425
0.231304 1.32393 -0.0773965
0.220178 1.32904 -0.0777704
0.24213 1.32881 -0.077646
0.208925 1.33417 -0.0781354
0.231138 1.33391 -0.0780491
0.220008 1.33902 -0.0783965
0.241997 1.33878 -0.0782913
0.208719 1.34414 -0.0787477
0.230968 1.34388 -0.0787096
0.197287 1.34927 -0.0790211
0.174401 1.34958 -0.0786582
0.163306 1.35476 -0.0778432
0.185592 1.3544 -0.0792825
0.174187 1.35956 -0.0792782
0.197046 1.35924 -0.0796263
0.163028 1.36474 -0.0784547
0.185352 1.36438 -0.0799162
0.173984 1.36955 -0.0798794
0.196803 1.36922 -0.0802397
0.162752 1.37473 -0.0790499
0.185135 1.37436 -0.0805502
0.162464 1.38471 -0.0796592
0.173749 1.37953 -0.0804883
0.196556 1.37919 -0.0808556
0.184898 1.38434 -0.0811791
0.219816 1.34899 -0.0790382
0.241851 1.34875 -0.0789365
0.208509 1.35412 -0.0793598
0.230808 1.35386 -0.07933
0.219654 1.35897 -0.0796547
0.241712 1.35873 -0.0795603
0.208296 1.36409 -0.079986
0.230646 1.36383 -0.0799613
0.21948 1.36895 -0.0802714
0.241576 1.3687 -0.0801824
0.208107 1.37407 -0.0806315
0.230504 1.37381 -0.0805831
0.219303 1.37893 -0.0808781
0.241419 1.37868 -0.0808379
0.207887 1.38404 -0.0812642
0.230335 1.38378 -0.0812177
0.241237 1.38865 -0.0815041
0.25307 1.30374 -0.076313
0.274374 1.30353 -0.076532
0.242406 1.30885 -0.0763841
0.28476 1.30842 -0.0769772
0.263702 1.30861 -0.076662
0.25293 1.31371 -0.0769444
0.27426 1.3135 -0.0771843
0.284655 1.31839 -0.077631
0.26357 1.31859 -0.0772843
0.274142 1.32347 -0.0778045
0.252803 1.32369 -0.0775637
0.284557 1.32836 -0.0782785
0.263457 1.32856 -0.0779097
0.252679 1.33366 -0.0782031
0.274032 1.33344 -0.0784316
0.284472 1.33833 -0.078924
0.263348 1.33853 -0.0785198
0.25255 1.34363 -0.0788405
0.273919 1.34342 -0.0790673
0.315949 1.30317 -0.0773684
0.295184 1.30333 -0.0770716
0.305535 1.30823 -0.0775516
0.326299 1.30809 -0.0777215
0.315869 1.31314 -0.0780323
0.295096 1.3133 -0.0777379
0.305455 1.3182 -0.0782069
0.32623 1.31806 -0.0783924
0.315788 1.32311 -0.0786831
0.295008 1.32327 -0.0783905
0.305374 1.32817 -0.078866
0.326153 1.32803 -0.0790588
0.315724 1.33308 -0.0793243
0.294927 1.33324 -0.0790361
0.326099 1.338 -0.0797039
0.305312 1.33815 -0.0794838
0.315661 1.34305 -0.0799555
0.294848 1.34322 -0.0796555
0.284373 1.34831 -0.0795873
0.263225 1.34851 -0.0791354
0.252429 1.35361 -0.0794264
0.273807 1.35339 -0.0796815
0.263104 1.35849 -0.0797394
0.284262 1.35828 -0.0802314
0.252297 1.36359 -0.0800381
0.273689 1.36336 -0.0802865
0.262996 1.36846 -0.0803693
0.284155 1.36825 -0.0808746
0.252171 1.37356 -0.0806677
0.252034 1.38353 -0.0813105
0.273564 1.37334 -0.0809041
0.262868 1.37844 -0.0810237
0.28403 1.37822 -0.0815272
0.273435 1.38331 -0.0815272
0.26274 1.38841 -0.0816876
0.283901 1.38819 -0.0821917
0.326039 1.34797 -0.0803609
0.305245 1.34812 -0.0801096
0.315597 1.35302 -0.0805901
0.294764 1.35319 -0.0802883
0.325968 1.35794 -0.0810223
0.305166 1.35809 -0.0807317
0.315529 1.363 -0.0812151
0.294676 1.36316 -0.0809252
[...]
POINT_DATA 27472
VECTORS alpha float
5.98608e-07 -7.51879e-09 -1.12154e-08
5.87351e-07 -7.33765e-09 -1.14462e-08
-5.91973e-07 1.91611e-05 -1.10393e-06
5.76899e-07 -7.18225e-09 -1.17951e-08
-6.06995e-07 1.91729e-05 -1.13355e-06
5.58727e-07 -6.94887e-09 -1.1755e-08
-5.76439e-07 1.91833e-05 -1.10058e-06
5.47581e-07 -6.78702e-09 -1.16473e-08
5.21192e-07 -6.4403e-09 -1.13941e-08
-5.56166e-07 1.9193e-05 -1.07977e-06
5.61979e-07 -6.83861e-09 -5.76031e-08
-5.72391e-07 1.92034e-05 -1.11389e-06
5.13711e-07 -6.32231e-09 -1.14373e-08
5.50607e-07 -6.67355e-09 -5.68348e-08
-5.90805e-07 1.92132e-05 -1.13015e-06
5.03323e-07 -6.16167e-09 -1.12553e-08
5.41881e-07 -6.52709e-09 -5.57365e-08
4.92931e-07 -5.98271e-09 -1.06454e-08
-5.69904e-07 1.92217e-05 -1.13248e-06
5.26229e-07 -6.30022e-09 -5.33975e-08
-5.18473e-07 1.923e-05 -1.10377e-06
-5.3983e-07 1.72668e-05 -9.16778e-07
4.86778e-07 -5.86427e-09 -9.02492e-09
5.16937e-07 -6.14489e-09 -5.17012e-08
4.78068e-07 -5.71391e-09 -8.03775e-09
-4.98348e-07 1.92392e-05 -1.10098e-06
4.72653e-07 -5.58188e-09 -6.29566e-09
4.91889e-07 -5.8066e-09 -4.8907e-08
-5.24838e-07 1.7276e-05 -9.04406e-07
-4.75405e-07 1.92482e-05 -1.09325e-06
4.67759e-07 -5.44928e-09 -4.50907e-09
4.85087e-07 -5.67105e-09 -4.76981e-08
-4.9675e-07 1.7285e-05 -8.8278e-07
4.59262e-07 -5.2708e-09 -2.30094e-09
-4.72326e-07 1.92578e-05 -1.11617e-06
-4.9741e-08 1.00386e-05 -6.69733e-07
4.72495e-07 -2.86571e-09 3.92299e-09
4.80047e-07 -2.50707e-09 3.58405e-09
-5.68429e-08 1.15046e-05 -7.50475e-07
-3.16616e-07 2.01131e-05 -1.20607e-06
-2.19054e-07 1.89023e-05 -1.13994e-06
4.63594e-07 -3.24284e-09 3.2857e-09
-1.21509e-07 1.51097e-05 -9.50439e-07
-7.90331e-08 1.32006e-05 -8.54924e-07
-4.19319e-08 1.00427e-05 -6.68827e-07
-2.72302e-09 2.16669e-06 -1.49541e-07
-1.88117e-08 7.59186e-06 -5.17726e-07
-1.29177e-08 6.48817e-06 -4.41244e-07
-1.17897e-08 5.40708e-06 -3.64129e-07
5.01843e-07 -5.03358e-10 5.73815e-09
-5.87986e-09 4.32944e-06 -2.98381e-07
-2.92235e-09 3.24934e-06 -2.23665e-07
-3.60341e-10 1.08324e-06 -7.48227e-08
2.89886e-14 -1.45499e-11 1.00412e-12
4.82912e-07 -2.02034e-09 4.27886e-09
4.86346e-07 -1.69025e-09 3.3541e-09
4.91326e-07 -1.3897e-09 2.6399e-09
4.96005e-07 -1.21428e-09 2.1574e-09
-2.88211e-08 8.75629e-06 -5.82837e-07
-2.35968e-09 3.25077e-06 -2.23521e-07
-2.15193e-09 2.16758e-06 -1.49666e-07
2.58612e-14 -1.46638e-11 1.0108e-12
4.98524e-07 -8.95373e-10 2.29417e-09
5.03046e-07 -4.02018e-10 2.41879e-09
5.03577e-07 -3.16933e-10 -1.68024e-09
-1.73449e-08 7.59507e-06 -5.18112e-07
-1.17506e-08 6.49092e-06 -4.41344e-07
-1.07751e-08 5.40939e-06 -3.64103e-07
4.91637e-07 -8.6499e-10 2.34686e-09
4.94775e-07 -4.88719e-10 5.6186e-09
4.96121e-07 -3.91013e-10 2.29068e-09
4.96663e-07 -3.11754e-10 -1.79739e-09
-4.02882e-09 4.33122e-06 -2.98657e-07
-9.03374e-11 1.08368e-06 -7.49035e-08
-1.07273e-08 5.41173e-06 -3.64581e-07
4.76117e-07 -1.96341e-09 4.52551e-09
4.7947e-07 -1.64442e-09 3.37869e-09
4.84426e-07 -1.35235e-09 2.69115e-09
4.89012e-07 -1.18585e-09 2.02596e-09
-2.60897e-08 8.75997e-06 -5.8328e-07
-3.43824e-09 4.33318e-06 -2.97389e-07
-1.67163e-09 3.25213e-06 -2.23054e-07
-1.73573e-09 2.1685e-06 -1.49356e-07
3.02624e-12 1.08417e-06 -7.46065e-08
4.72963e-07 -1.29402e-09 2.92422e-09
4.77501e-07 -1.1452e-09 1.94292e-09
-1.52321e-08 7.59809e-06 -5.18064e-07
-1.03411e-08 6.49355e-06 -4.41486e-07
4.80016e-07 -8.24753e-10 2.48683e-09
4.83176e-07 -4.72389e-10 5.47931e-09
4.84565e-07 -3.78633e-10 2.15199e-09
4.85147e-07 -3.1361e-10 -2.02422e-09
4.53155e-07 -4.7565e-09 2.47091e-08
-3.15592e-07 2.01051e-05 -1.20511e-06
-2.26909e-07 1.88946e-05 -1.15091e-06
4.61976e-07 -4.87014e-09 2.56486e-08
-3.25654e-07 2.0097e-05 -1.23096e-06
4.73129e-07 -5.00496e-09 2.61869e-08
4.79905e-07 -5.10417e-09 2.60656e-08
4.7274e-07 -5.26766e-09 2.2106e-08
-3.14246e-07 2.00794e-05 -1.20227e-06
4.90504e-07 -5.24352e-09 2.67668e-08
-3.14661e-07 2.00703e-05 -1.21083e-06
4.97789e-07 -5.34764e-09 2.70316e-08
4.91607e-07 -5.54055e-09 2.21921e-08
4.84439e-07 -5.42594e-09 2.23865e-08
-4.24977e-07 2.02768e-05 -1.22482e-06
-3.01318e-07 2.00879e-05 -1.19764e-06
4.65755e-07 -5.15902e-09 2.25982e-08
-4.34665e-07 2.02858e-05 -1.20976e-06
4.54575e-07 -4.9978e-09 2.23989e-08
-4.31801e-07 2.02939e-05 -1.18717e-06
-2.24276e-07 1.88784e-05 -1.16138e-06
-1.4056e-07 1.70801e-05 -1.07349e-06
4.86329e-07 -4.84938e-09 2.05513e-08
-2.31693e-07 1.88703e-05 -1.17606e-06
-1.50761e-07 1.70725e-05 -1.08204e-06
4.96947e-07 -4.98363e-09 2.11814e-08
-2.33454e-07 1.88618e-05 -1.17417e-06
-1.56059e-07 1.70647e-05 -1.08304e-06
5.03983e-07 -5.08369e-09 2.17125e-08
4.79629e-07 -4.75432e-09 2.03404e-08
-2.21374e-07 1.88861e-05 -1.15814e-06
4.68383e-07 -4.62152e-09 1.97299e-08
-1.38377e-07 1.70871e-05 -1.06325e-06
-3.13881e-07 2.00616e-05 -1.21047e-06
-3.97515e-07 2.02672e-05 -1.19879e-06
5.05845e-07 -5.43171e-09 2.84515e-08
4.99701e-07 -5.64285e-09 2.20806e-08
-4.1465e-07 2.02493e-05 -1.19678e-06
-4.11232e-07 2.02585e-05 -1.21912e-06
-3.11044e-07 2.00527e-05 -1.23905e-06
5.15653e-07 -5.55056e-09 2.92142e-08
-3.16309e-07 2.00438e-05 -1.25577e-06
5.09646e-07 -5.77284e-09 2.18046e-08
5.2261e-07 -5.63439e-09 2.97059e-08
5.17234e-07 -5.87436e-09 2.2067e-08
-2.352e-07 1.88536e-05 -1.17339e-06
-1.61583e-07 1.70571e-05 -1.08444e-06
5.11316e-07 -5.1749e-09 2.23553e-08
-2.26798e-07 1.88456e-05 -1.15898e-06
-1.60709e-07 1.70496e-05 -1.08309e-06
-2.29784e-07 1.8837e-05 -1.17243e-06
5.21064e-07 -5.29353e-09 2.29287e-08
-1.64229e-07 1.70415e-05 -1.09567e-06
5.27992e-07 -5.39859e-09 2.28647e-08
-1.22843e-07 1.70946e-05 -1.05711e-06
4.45285e-07 -4.88268e-09 2.20317e-08
4.5939e-07 -4.52632e-09 1.87503e-08
-4.45083e-07 2.03026e-05 -1.23041e-06
4.67215e-07 -3.7668e-09 8.05837e-09
-1.1803e-07 1.51029e-05 -9.55779e-07
-7.5669e-08 1.31946e-05 -8.57638e-07
4.9236e-07 -4.48355e-09 1.29351e-08
5.02528e-07 -4.60047e-09 1.37727e-08
4.85714e-07 -4.39535e-09 1.24762e-08
4.74879e-07 -4.28103e-09 1.18553e-08
4.76525e-07 -3.86227e-09 8.02929e-09
-7.21087e-08 1.31893e-05 -8.53279e-07
4.87667e-07 -3.97472e-09 8.33067e-09
-7.23546e-08 1.31836e-05 -8.53473e-07
-1.06659e-07 1.509e-05 -9.45826e-07
4.99413e-07 -3.54439e-09 4.2771e-09
4.94988e-07 -4.02749e-09 8.82127e-09
-7.00114e-08 1.31774e-05 -8.55901e-07
-1.06129e-07 1.50829e-05 -9.57279e-07
5.09472e-07 -3.61629e-09 4.78717e-09
5.0574e-07 -4.11632e-09 9.30342e-09
-1.09114e-07 1.50962e-05 -9.50526e-07
4.65772e-07 -4.18825e-09 1.1425e-08
4.81357e-07 -2.94504e-09 4.00041e-09
4.88957e-07 -2.57335e-09 3.98875e-09
4.72325e-07 -3.33334e-09 3.34984e-09
4.81528e-07 -3.41226e-09 3.46857e-09
4.92419e-07 -3.50447e-09 3.69082e-09
-4.82229e-08 1.00339e-05 -6.69626e-07
-5.42518e-08 1.14994e-05 -7.52541e-07
-5.15734e-08 1.00294e-05 -6.69414e-07
4.98364e-07 -2.63616e-09 4.29207e-09
4.90675e-07 -3.02137e-09 4.11452e-09
5.09147e-07 -2.6986e-09 5.00416e-09
5.01532e-07 -3.09266e-09 4.63543e-09
-5.078e-08 1.14944e-05 -7.48537e-07
-4.90714e-08 1.00246e-05 -6.70649e-07
-5.03153e-08 1.14891e-05 -7.47878e-07
5.15723e-07 -2.72514e-09 5.83315e-09
5.08338e-07 -3.12775e-09 5.16058e-09
-4.74883e-08 1.00195e-05 -6.76415e-07
-4.87694e-08 1.14834e-05 -7.57365e-07
5.25531e-07 -2.77449e-09 6.5278e-09
5.18182e-07 -3.18711e-09 5.64185e-09
5.09545e-07 -4.71353e-09 1.44457e-08
5.16477e-07 -4.79663e-09 1.53362e-08
5.26144e-07 -4.90553e-09 1.61076e-08
5.32863e-07 -4.99438e-09 1.63325e-08
-6.4916e-08 1.31713e-05 -8.58896e-07
-9.94982e-08 1.5076e-05 -9.61443e-07
5.16916e-07 -3.66679e-09 5.23803e-09
5.13307e-07 -4.17741e-09 9.66579e-09
-9.20816e-08 1.5069e-05 -9.62165e-07
-5.86372e-08 1.31645e-05 -8.59779e-07
5.23876e-07 -3.70374e-09 5.75663e-09
5.20607e-07 -4.23491e-09 9.91188e-09
-8.62129e-08 1.50624e-05 -9.60127e-07
-5.76326e-08 1.31585e-05 -8.63157e-07
5.34191e-07 -3.78093e-09 6.18404e-09
5.30933e-07 -4.33583e-09 1.01437e-08
-8.65154e-08 1.50552e-05 -9.66944e-07
-6.90975e-08 1.31521e-05 -8.69959e-07
5.41209e-07 -3.85441e-09 6.33209e-09
5.38109e-07 -4.43116e-09 1.01358e-08
-4.53441e-08 1.00147e-05 -6.79335e-07
-4.33045e-08 1.14781e-05 -7.5637e-07
5.33355e-07 -2.80876e-09 6.98588e-09
5.25828e-07 -3.23028e-09 6.00242e-09
-4.07909e-08 1.00099e-05 -6.75906e-07
-3.67947e-08 1.14726e-05 -7.5557e-07
5.39989e-07 -2.84047e-09 7.39283e-09
5.32529e-07 -3.27117e-09 6.2006e-09
-3.71941e-08 1.00052e-05 -6.74384e-07
-3.44478e-08 1.14674e-05 -7.56423e-07
5.50608e-07 -2.90327e-09 7.91508e-09
5.42929e-07 -3.33911e-09 6.56614e-09
-4.10205e-08 1.00003e-05 -6.75189e-07
-3.96635e-08 1.14619e-05 -7.5983e-07
5.49941e-07 -3.39323e-09 6.94674e-09
5.57595e-07 -2.94471e-09 8.5127e-09
-4.11157e-07 2.02396e-05 -1.19884e-06
-3.21918e-07 2.00342e-05 -1.23522e-06
5.33078e-07 -5.76323e-09 3.02449e-08
5.2854e-07 -6.03311e-09 2.23245e-08
-4.13618e-07 2.02302e-05 -1.204e-06
-3.16895e-07 2.00241e-05 -1.24206e-06
5.40017e-07 -6.19301e-09 2.31405e-08
5.43882e-07 -5.9054e-09 3.10791e-08
-4.19462e-07 2.02204e-05 -1.20903e-06
-3.32358e-07 2.00144e-05 -1.23959e-06
5.47904e-07 -6.29503e-09 2.4293e-08
5.516e-07 -5.9997e-09 3.16181e-08
-4.1145e-07 2.02109e-05 -1.20897e-06
-3.38304e-07 2.00046e-05 -1.2522e-06
-4.09192e-07 2.02012e-05 -1.20293e-06
5.7424e-07 -6.62431e-09 2.56025e-08
5.77373e-07 -6.29865e-09 3.33155e-08
-3.4166e-07 1.99952e-05 -1.26586e-06
-2.28527e-07 1.88286e-05 -1.16315e-06
-1.69654e-07 1.70337e-05 -1.09882e-06
5.38266e-07 -5.51559e-09 2.35736e-08
-2.15721e-07 1.88195e-05 -1.15535e-06
-1.60802e-07 1.70252e-05 -1.09627e-06
5.48299e-07 -5.6414e-09 2.43689e-08
5.52527e-07 -5.21774e-09 1.81242e-08
-2.23506e-07 1.88103e-05 -1.16688e-06
-1.69883e-07 1.70167e-05 -1.1042e-06
5.55504e-07 -5.73873e-09 2.50786e-08
5.5958e-07 -5.2997e-09 1.88757e-08
-2.26977e-07 1.88006e-05 -1.16019e-06
-1.76929e-07 1.70082e-05 -1.11306e-06
5.80107e-07 -6.00472e-09 2.63397e-08
5.83546e-07 -5.5341e-09 1.99183e-08
-2.46176e-07 1.87914e-05 -1.18518e-06
-1.87473e-07 1.70004e-05 -1.10878e-06
5.9039e-07 -6.45683e-09 3.41821e-08
5.86473e-07 -6.78114e-09 2.63495e-08
-4.12163e-07 2.01918e-05 -1.19392e-06
-3.49877e-07 1.99859e-05 -1.26899e-06
6.05043e-07 -7.01912e-09 2.71098e-08
6.0936e-07 -6.68874e-09 3.49596e-08
-4.30762e-07 2.01811e-05 -1.16774e-06
-3.56938e-07 1.99761e-05 -1.24333e-06
6.1562e-07 -7.1643e-09 2.74158e-08
6.20739e-07 -6.82397e-09 3.5635e-08
-4.62648e-07 2.01705e-05 -1.18481e-06
-3.62674e-07 1.99655e-05 -1.24857e-06
-4.77563e-07 2.01593e-05 -1.17832e-06
6.26108e-07 -7.33012e-09 2.76647e-08
6.32019e-07 -6.96453e-09 3.60199e-08
-3.58951e-07 1.99549e-05 -1.23086e-06
5.93479e-07 -6.16402e-09 2.72763e-08
5.97362e-07 -5.68651e-09 2.09208e-08
-2.49308e-07 1.87821e-05 -1.18353e-06
-1.88441e-07 1.69916e-05 -1.10248e-06
6.11826e-07 -6.37787e-09 2.83958e-08
6.1566e-07 -5.88089e-09 2.17598e-08
-2.50444e-07 1.87733e-05 -1.18239e-06
-1.88401e-07 1.69832e-05 -1.09842e-06
6.2301e-07 -6.49708e-09 2.92288e-08
6.26737e-07 -5.99165e-09 2.23828e-08
-2.58571e-07 1.87633e-05 -1.18224e-06
-1.92724e-07 1.69738e-05 -1.09942e-06
6.33386e-07 -6.61937e-09 2.95728e-08
6.36898e-07 -6.10146e-09 2.29796e-08
-2.61656e-07 1.87537e-05 -1.18829e-06
-1.87618e-07 1.69644e-05 -1.09271e-06
6.50452e-07 -6.23032e-09 2.32415e-08
-8.671e-08 1.50477e-05 -9.74669e-07
-7.18494e-08 1.31455e-05 -8.78676e-07
5.42896e-07 -5.10514e-09 1.68975e-08
5.51504e-07 -3.94996e-09 6.54448e-09
5.48529e-07 -4.54941e-09 1.01534e-08
-8.08284e-08 1.504e-05 -9.72957e-07
-6.58179e-08 1.31389e-05 -8.74813e-07
5.60711e-07 -4.03299e-09 6.7898e-09
5.57986e-07 -4.65441e-09 1.03861e-08
-7.35182e-08 1.31323e-05 -8.77113e-07
-8.69037e-08 1.50325e-05 -9.79381e-07
5.67837e-07 -4.10562e-09 6.98395e-09
5.64871e-07 -4.74193e-09 1.06328e-08
-9.9831e-08 1.5025e-05 -9.87792e-07
-7.79863e-08 1.31256e-05 -8.82456e-07
5.91213e-07 -4.32124e-09 6.92649e-09
5.88546e-07 -4.99147e-09 1.0539e-08
-1.04075e-07 1.50178e-05 -9.84878e-07
-7.74216e-08 1.3119e-05 -8.78998e-07
-4.08655e-08 9.99509e-06 -6.7669e-07
-4.24848e-08 1.1456e-05 -7.67222e-07
5.60155e-07 -3.47584e-09 7.13954e-09
5.67895e-07 -3.01927e-09 8.82188e-09
-3.85504e-08 9.9901e-06 -6.76282e-07
-3.71757e-08 1.14504e-05 -7.6526e-07
5.68971e-07 -3.53825e-09 7.33959e-09
5.76584e-07 -3.07125e-09 9.15964e-09
-4.00116e-08 9.98504e-06 -6.7652e-07
-4.35146e-08 1.14447e-05 -7.71297e-07
5.76167e-07 -3.59454e-09 7.64335e-09
5.8397e-07 -3.12063e-09 9.53866e-09
-4.01778e-08 9.97985e-06 -6.80527e-07
-4.67464e-08 1.1439e-05 -7.76645e-07
6.07385e-07 -3.28193e-09 9.89899e-09
5.99234e-07 -3.78364e-09 7.70762e-09
-4.39017e-08 9.97448e-06 -6.81551e-07
-5.00961e-08 1.1433e-05 -7.815e-07
6.05804e-07 -4.4896e-09 6.64783e-09
6.02512e-07 -5.17684e-09 1.02234e-08
-1.12809e-07 1.50097e-05 -9.85138e-07
-7.99761e-08 1.31121e-05 -8.76488e-07
6.20092e-07 -5.37732e-09 1.04135e-08
6.23629e-07 -4.67681e-09 6.59071e-09
-1.17449e-07 1.50021e-05 -9.86003e-07
-7.99117e-08 1.31059e-05 -8.73326e-07
6.31273e-07 -5.51293e-09 1.07334e-08
6.3589e-07 -4.82225e-09 6.3715e-09
-1.28107e-07 1.49936e-05 -1.00148e-06
-1.29678e-07 1.49852e-05 -1.01387e-06
-8.5718e-08 1.30986e-05 -8.78926e-07
6.41125e-07 -5.61741e-09 1.11549e-08
6.46186e-07 -4.91724e-09 6.68208e-09
-8.52147e-08 1.30914e-05 -8.84599e-07
6.55198e-07 -5.7425e-09 1.17866e-08
6.61562e-07 -5.04393e-09 7.06207e-09
6.22379e-07 -3.40101e-09 1.02598e-08
6.13927e-07 -3.91965e-09 7.74628e-09
-4.90116e-08 9.96906e-06 -6.80525e-07
-5.58266e-08 1.14268e-05 -7.80346e-07
6.39801e-07 -3.52868e-09 1.08667e-08
6.31404e-07 -4.06791e-09 8.00943e-09
-5.03907e-08 9.9637e-06 -6.81176e-07
-5.91285e-08 1.14208e-05 -7.83129e-07
6.52505e-07 -3.62811e-09 1.12722e-08
6.43674e-07 -4.18025e-09 8.1237e-09
-5.42074e-08 9.958e-06 -6.82435e-07
-6.40678e-08 1.14143e-05 -7.84828e-07
6.62651e-07 -3.6962e-09 1.14562e-08
6.53847e-07 -4.25904e-09 8.39125e-09
-5.38512e-08 9.95217e-06 -6.79354e-07
-6.29765e-08 1.14078e-05 -7.81762e-07
6.79463e-07 -3.79208e-09 1.18656e-08
6.69916e-07 -4.36685e-09 8.79011e-09
4.95698e-07 -1.73523e-09 3.5732e-09
4.9209e-07 -2.07453e-09 4.49225e-09
-1.59616e-08 7.58822e-06 -5.17482e-07
-2.64244e-08 8.75219e-06 -5.82083e-07
-1.56204e-08 7.58484e-06 -5.14261e-07
-2.54775e-08 8.74824e-06 -5.79651e-07
5.05972e-07 -1.77441e-09 3.94888e-09
5.02191e-07 -2.1268e-09 4.63877e-09
5.17124e-07 -1.82007e-09 4.28665e-09
5.13353e-07 -2.19001e-09 4.66329e-09
-1.22844e-08 7.58092e-06 -5.15809e-07
-2.23994e-08 8.74353e-06 -5.86325e-07
5.2387e-07 -1.84001e-09 4.72909e-09
5.20285e-07 -2.21938e-09 4.99738e-09
-1.04508e-08 7.5772e-06 -5.16337e-07
-2.04274e-08 8.73913e-06 -5.90592e-07
5.306e-07 -2.25931e-09 5.43774e-09
5.34044e-07 -1.87018e-09 5.41004e-09
5.00718e-07 -1.41836e-09 2.96261e-09
5.05477e-07 -1.23808e-09 2.55416e-09
5.16069e-07 -1.26378e-09 2.94887e-09
-1.02528e-08 6.48503e-06 -4.43715e-07
-1.01853e-08 5.40449e-06 -3.65428e-07
-9.85164e-09 6.48214e-06 -4.42826e-07
-1.00535e-08 5.40208e-06 -3.63714e-07
5.1111e-07 -1.43941e-09 3.47473e-09
5.2225e-07 -1.4684e-09 3.88112e-09
5.27244e-07 -1.2764e-09 3.64948e-09
-8.11542e-09 6.47882e-06 -4.46596e-07
-8.854e-09 5.39935e-06 -3.65581e-07
5.28725e-07 -1.4719e-09 4.41978e-09
5.33555e-07 -1.28154e-09 4.1649e-09
-7.84725e-09 5.39664e-06 -3.70115e-07
-6.21091e-09 6.47539e-06 -4.51467e-07
5.43923e-07 -1.2954e-09 4.66446e-09
5.38859e-07 -1.48561e-09 5.08859e-09
-8.97505e-09 7.57356e-06 -5.18107e-07
-1.97751e-08 8.73486e-06 -5.94859e-07
5.38943e-07 -2.31145e-09 5.60045e-09
5.42473e-07 -1.90769e-09 5.74592e-09
-6.83801e-09 7.56999e-06 -5.16017e-07
-1.80049e-08 8.73072e-06 -5.91528e-07
5.49402e-07 -1.94352e-09 5.97529e-09
5.45753e-07 -2.35425e-09 5.92822e-09
-1.74452e-08 8.72647e-06 -5.92157e-07
-4.1235e-09 7.56626e-06 -5.13338e-07
5.60752e-07 -1.9922e-09 6.14712e-09
5.56899e-07 -2.42163e-09 5.89289e-09
-2.27542e-08 8.72177e-06 -5.9919e-07
-5.19586e-09 7.56226e-06 -5.175e-07
5.68191e-07 -2.01974e-09 6.48138e-09
5.6427e-07 -2.45974e-09 6.13477e-09
-4.91785e-09 7.55817e-06 -5.20195e-07
-7.28477e-09 5.39383e-06 -3.73613e-07
-5.33337e-09 6.47215e-06 -4.54207e-07
5.47276e-07 -1.50217e-09 5.54031e-09
5.52256e-07 -1.31718e-09 5.12586e-09
-3.90115e-09 6.46894e-06 -4.549e-07
-6.05253e-09 5.39113e-06 -3.73964e-07
5.54108e-07 -1.51034e-09 6.01487e-09
5.59086e-07 -1.3299e-09 5.53684e-09
-1.09907e-09 6.46581e-06 -4.52416e-07
-4.3479e-09 5.38854e-06 -3.72032e-07
5.65623e-07 -1.53643e-09 6.45518e-09
5.708e-07 -1.35518e-09 6.02036e-09
-1.4402e-09 6.46253e-06 -4.5149e-07
-4.66756e-09 5.38582e-06 -3.71393e-07
5.73125e-07 -1.55282e-09 6.85663e-09
5.78355e-07 -1.36802e-09 6.35255e-09
-1.05496e-09 6.45918e-06 -4.50089e-07
-4.39138e-09 5.38298e-06 -3.7099e-07
5.11527e-07 -5.2162e-10 5.89888e-09
5.08174e-07 -9.25261e-10 2.37044e-09
5.19039e-07 -9.55977e-10 2.44469e-09
5.22353e-07 -5.4074e-10 6.04289e-09
-5.43476e-09 4.32737e-06 -2.99116e-07
-2.51738e-09 3.2478e-06 -2.24138e-07
-5.86879e-09 4.32543e-06 -2.97447e-07
-2.63247e-09 3.24634e-06 -2.22966e-07
5.30556e-07 -9.76093e-10 2.76286e-09
5.33893e-07 -5.59009e-10 6.2769e-09
-5.28202e-09 4.32324e-06 -2.97764e-07
-2.21792e-09 3.24472e-06 -2.23214e-07
5.37065e-07 -9.90118e-10 2.98265e-09
5.40302e-07 -5.73769e-10 6.37947e-09
-4.76857e-09 4.32111e-06 -2.99252e-07
-1.668e-09 3.24314e-06 -2.23819e-07
5.51022e-07 -5.87212e-10 6.52348e-09
5.47571e-07 -1.00565e-09 3.29771e-09
5.1274e-07 -4.10113e-10 2.66882e-09
5.13249e-07 -3.2153e-10 -1.5168e-09
5.23765e-07 -4.17926e-10 2.93018e-09
5.24276e-07 -3.25916e-10 -1.36178e-09
-2.24402e-09 2.1656e-06 -1.50118e-07
-2.84523e-10 1.08272e-06 -7.4887e-08
-2.38562e-09 2.16462e-06 -1.49371e-07
-3.56551e-10 1.08224e-06 -7.44884e-08
3.02529e-14 -1.41591e-11 9.72378e-13
5.35308e-07 -4.23024e-10 3.29399e-09
5.35798e-07 -3.3563e-10 -1.24278e-09
-2.19297e-09 2.16353e-06 -1.49558e-07
-3.17602e-10 1.08169e-06 -7.45516e-08
5.41652e-07 -4.21353e-10 3.6316e-09
5.4208e-07 -3.3715e-10 -1.08784e-09
-1.90164e-09 2.16247e-06 -1.50119e-07
-1.45194e-10 1.08113e-06 -7.48682e-08
5.52233e-07 -4.24629e-10 3.90986e-09
5.52655e-07 -3.47606e-10 -1.136e-09
-8.03639e-15 -1.33716e-11 9.211e-13
-3.58725e-15 -1.38869e-11 9.54682e-13
-1.3371e-09 3.2415e-06 -2.25174e-07
-4.30148e-09 4.31882e-06 -3.01748e-07
5.59882e-07 -6.01525e-10 6.67316e-09
5.56345e-07 -1.01559e-09 3.56788e-09
-3.56287e-09 4.3166e-06 -3.01766e-07
-6.20933e-10 3.23977e-06 -2.25316e-07
5.66974e-07 -6.1465e-10 6.72032e-09
5.63416e-07 -1.02146e-09 3.81998e-09
-2.57388e-09 4.31446e-06 -3.00728e-07
-4.96081e-11 3.23813e-06 -2.24792e-07
5.75391e-07 -1.04173e-09 4.03611e-09
5.78889e-07 -6.35829e-10 6.84093e-09
-2.99483e-09 4.31221e-06 -3.01074e-07
-2.30611e-10 3.23642e-06 -2.24971e-07
5.83246e-07 -1.05932e-09 4.17052e-09
5.86823e-07 -6.54798e-10 6.88119e-09
-2.94835e-09 4.30992e-06 -3.01275e-07
-1.00704e-10 3.23466e-06 -2.25247e-07
-1.6877e-09 2.16138e-06 -1.51016e-07
-1.11784e-10 1.0806e-06 -7.51778e-08
5.6113e-07 -4.177e-10 4.35214e-09
5.61541e-07 -3.50804e-10 -9.94143e-10
-1.37275e-09 2.16026e-06 -1.50927e-07
-4.82219e-11 1.08004e-06 -7.50768e-08
5.68221e-07 -4.10644e-10 4.70168e-09
5.68601e-07 -3.53935e-10 -9.47998e-10
-1.40233e-09 2.15918e-06 -1.50212e-07
-1.9428e-10 1.07951e-06 -7.47634e-08
5.80748e-07 -3.60075e-10 -8.5972e-10
5.80404e-07 -4.11085e-10 5.09455e-09
-1.0824e-09 2.158e-06 -1.50299e-07
-1.06754e-10 1.07892e-06 -7.48302e-08
5.88376e-07 -4.10587e-10 5.42756e-09
5.88733e-07 -3.61751e-10 -6.92572e-10
-9.76783e-10 2.15682e-06 -1.50336e-07
-1.33193e-10 1.07832e-06 -7.48336e-08
-1.32134e-15 -1.33119e-11 9.22187e-13
1.84587e-14 -1.35587e-11 9.38756e-13
-1.16349e-15 -1.4239e-11 9.82463e-13
3.34585e-14 -1.55753e-11 1.07662e-12
-1.35179e-15 -1.7919e-11 1.23917e-12
-2.4274e-08 8.71707e-06 -6.02242e-07
5.7863e-07 -2.05953e-09 6.83863e-09
5.74749e-07 -2.51235e-09 6.41404e-09
-2.27519e-08 8.71258e-06 -6.03768e-07
-2.40541e-09 7.5541e-06 -5.21674e-07
5.87282e-07 -2.09607e-09 7.10212e-09
5.83557e-07 -2.55863e-09 6.70583e-09
-2.30926e-08 8.70783e-06 -6.06162e-07
-1.1364e-09 7.55011e-06 -5.24023e-07
5.95253e-07 -2.13472e-09 7.21878e-09
5.91458e-07 -2.61341e-09 6.80726e-09
-2.31009e-08 8.70322e-06 -6.09781e-07
-2.0695e-11 7.54601e-06 -5.27059e-07
6.19098e-07 -2.22172e-09 7.81429e-09
6.15256e-07 -2.71794e-09 7.36283e-09
-2.73516e-08 8.69856e-06 -6.09376e-07
-5.9781e-10 7.54193e-06 -5.24783e-07