# vtk DataFile Version 3.0
vtk output
ASCII
DATASET POLYDATA
POINTS 8383 float
0.189034 0.419763 -0.0239164
0.219394 0.424622 -0.023426
0.189073 0.409759 -0.0233653
0.199186 0.414717 -0.0233228
0.209296 0.419665 -0.0233372
0.239602 0.424531 -0.0231723
0.319876 0.424591 -0.0232906
0.33986 0.42455 -0.0231727
0.359814 0.424513 -0.0231338
0.38006 0.424583 -0.0232733
0.400037 0.424554 -0.0231572
0.420014 0.424529 -0.0231024
0.440039 0.424508 -0.0232102
0.460021 0.424496 -0.0231464
0.480004 0.424489 -0.0231477
0.229518 0.419572 -0.0229321
0.249734 0.419565 -0.0228784
0.269752 0.419718 -0.0227882
0.299732 0.424638 -0.0230286
0.329871 0.419561 -0.0228731
0.349838 0.419523 -0.0227951
0.369775 0.41949 -0.0227944
0.390042 0.419558 -0.0228627
0.410016 0.419532 -0.0227787
0.450016 0.419493 -0.0228338
0.469997 0.419483 -0.0228086
0.489979 0.419478 -0.0228487
0.810966 0.419763 -0.0239163
0.780606 0.424622 -0.0234259
0.50001 0.424487 -0.0232134
0.519996 0.42449 -0.0231484
0.539979 0.424496 -0.0231471
0.559961 0.424508 -0.0232109
0.579986 0.424529 -0.0231031
0.599963 0.424554 -0.0231579
0.61994 0.424583 -0.023274
0.640186 0.424513 -0.0231338
0.66014 0.42455 -0.0231727
0.680124 0.424591 -0.0232906
0.810927 0.409759 -0.0233652
0.800814 0.414717 -0.0233227
0.790704 0.419665 -0.0233371
0.760398 0.424531 -0.0231722
0.510021 0.419478 -0.0228494
0.530003 0.419483 -0.0228093
0.549984 0.419493 -0.0228346
0.589984 0.419532 -0.0227796
0.609958 0.419558 -0.0228635
0.630225 0.41949 -0.0227943
0.650162 0.419523 -0.0227951
0.670129 0.419561 -0.0228731
0.730248 0.419718 -0.0227881
0.700268 0.424638 -0.0230284
0.750266 0.419565 -0.0228783
0.770482 0.419572 -0.0229319
0.118152 0.54486 -0.0269526
0.118207 0.534807 -0.0264228
0.118243 0.524768 -0.0259005
0.108178 0.539868 -0.0255277
0.118278 0.514756 -0.0253421
0.108208 0.529832 -0.0250181
0.098183 0.54493 -0.0243947
0.118327 0.504766 -0.0247568
0.108243 0.519813 -0.0245217
0.0982143 0.534896 -0.0239048
0.118375 0.494783 -0.0241826
0.108287 0.509819 -0.0239714
0.0982379 0.524851 -0.0234543
0.118425 0.484771 -0.0236103
0.108335 0.499796 -0.0234298
0.0982743 0.514805 -0.022999
0.118489 0.47477 -0.0230411
0.108391 0.489795 -0.0228813
0.168884 0.449788 -0.024523
0.158702 0.454836 -0.024807
0.179006 0.45472 -0.0249104
0.168836 0.459754 -0.0252088
0.158654 0.464789 -0.0254424
0.178974 0.464683 -0.0255379
0.148469 0.469812 -0.0255627
0.168798 0.469713 -0.0258551
0.158608 0.474745 -0.0260958
0.178945 0.474648 -0.0261822
0.168753 0.479683 -0.0264842
0.148413 0.479769 -0.02622
0.178907 0.484627 -0.0268196
0.158562 0.48471 -0.026754
0.138213 0.484792 -0.0262668
0.138279 0.474837 -0.0256113
0.128117 0.479866 -0.0254237
0.138345 0.464891 -0.0249543
0.14853 0.459863 -0.0249405
0.128222 0.469928 -0.0247117
0.138411 0.454951 -0.0243183
0.148597 0.449898 -0.0242559
0.128299 0.459985 -0.0241014
0.158776 0.444852 -0.0240897
0.179067 0.444743 -0.024178
0.168951 0.439803 -0.0238108
0.138525 0.444968 -0.023577
0.158843 0.434862 -0.0233753
0.179117 0.434761 -0.0234593
0.148696 0.439916 -0.023516
0.12841 0.450035 -0.0234404
0.169011 0.429811 -0.0231131
0.148774 0.429921 -0.0228236
0.138635 0.434985 -0.022843
0.199139 0.424717 -0.0239446
0.229493 0.429564 -0.0236043
0.249711 0.429577 -0.023539
0.188962 0.429757 -0.0246297
0.20925 0.429662 -0.0240037
0.23958 0.434519 -0.0238458
0.199085 0.43471 -0.0246623
0.21936 0.434612 -0.0241329
0.188893 0.439749 -0.0253719
0.209211 0.439651 -0.0247263
0.229462 0.439557 -0.0242911
0.249679 0.439617 -0.0242073
0.199033 0.444695 -0.0254145
0.219327 0.444599 -0.0248427
0.239553 0.444506 -0.0245326
0.188823 0.449732 -0.026151
0.209172 0.44963 -0.0254863
0.22944 0.449532 -0.0250296
0.24966 0.449637 -0.0249425
0.198979 0.454673 -0.0261628
0.219297 0.45457 -0.0256119
0.239534 0.454472 -0.025282
0.188761 0.459691 -0.0268928
0.209137 0.459595 -0.0261793
0.229423 0.459493 -0.025735
0.249646 0.459613 -0.0256304
0.198941 0.464623 -0.0268403
0.219282 0.464525 -0.0262712
0.239526 0.464436 -0.0259198
0.188709 0.469643 -0.0275805
0.209114 0.469553 -0.0268504
0.229412 0.469466 -0.0263645
0.249635 0.469566 -0.026222
0.198906 0.47458 -0.0275647
0.21927 0.474492 -0.0269351
0.239525 0.474408 -0.0265599
0.188659 0.479611 -0.028271
0.209093 0.479526 -0.0275253
0.229408 0.479444 -0.02702
0.249633 0.479528 -0.0268451
0.198877 0.484555 -0.0282326
0.219262 0.48447 -0.027594
0.239528 0.484389 -0.0272
0.168714 0.489661 -0.0271386
0.148355 0.489739 -0.0268729
0.128039 0.489827 -0.0260729
0.15851 0.494696 -0.0273752
0.178875 0.494613 -0.0274722
0.138146 0.494768 -0.0268659
0.168676 0.499653 -0.0277931
0.148302 0.499724 -0.0275168
0.127937 0.499792 -0.0267435
0.158467 0.504692 -0.0280283
0.178844 0.504611 -0.0281361
0.138088 0.504757 -0.0275015
0.168642 0.509657 -0.0284472
0.148255 0.509722 -0.0281554
0.127875 0.509782 -0.0273571
0.158431 0.514699 -0.0286644
0.178817 0.514615 -0.0287918
0.138038 0.514761 -0.0281203
0.168613 0.519665 -0.0290853
0.148216 0.519731 -0.0287708
0.127823 0.51979 -0.0279484
0.158411 0.524722 -0.0292183
0.178802 0.524648 -0.0293701
0.13801 0.524768 -0.0286421
0.168611 0.529722 -0.0295876
0.148209 0.529759 -0.0292422
0.127811 0.529788 -0.0283834
0.178804 0.534729 -0.029899
0.158408 0.53476 -0.0297505
0.137997 0.534786 -0.029159
0.168607 0.539811 -0.030132
0.148196 0.539824 -0.0297592
0.127817 0.539832 -0.0288415
0.178804 0.544841 -0.0304731
0.158401 0.544846 -0.0302933
0.13798 0.54485 -0.0296728
0.188611 0.489601 -0.0289333
0.209073 0.489518 -0.0281845
0.229404 0.489437 -0.0276648
0.249631 0.489513 -0.0274823
0.198841 0.494559 -0.0288898
0.219248 0.494473 -0.0282458
0.239524 0.494389 -0.0278364
0.188563 0.499618 -0.0295804
0.209051 0.499536 -0.0288408
0.229397 0.499451 -0.028315
0.24963 0.499525 -0.0281212
0.198809 0.504579 -0.0295441
0.219236 0.504492 -0.0289057
0.239514 0.504426 -0.0284661
0.188521 0.509652 -0.0302266
0.209032 0.509563 -0.0294962
0.229391 0.509474 -0.0289735
0.249627 0.509563 -0.0288006
0.198782 0.514618 -0.0301973
0.219226 0.514521 -0.0295652
0.23951 0.514449 -0.0291288
0.188485 0.519713 -0.0308764
0.209017 0.51961 -0.0301579
0.229385 0.519507 -0.0296407
0.249623 0.519601 -0.029489
0.19877 0.524664 -0.0307863
0.219227 0.524561 -0.0301541
0.239514 0.524492 -0.0297163
0.188471 0.529734 -0.0314622
0.209025 0.529636 -0.0307173
0.2294 0.529573 -0.0301618
0.249643 0.529664 -0.0299483
0.198768 0.534757 -0.0313557
0.21924 0.534648 -0.0307016
0.239534 0.534546 -0.030257
0.188452 0.53986 -0.0320761
0.20903 0.539754 -0.0313006
0.249663 0.539798 -0.0304235
0.229419 0.539644 -0.0307306
0.198764 0.544918 -0.0319697
0.219253 0.544794 -0.0312874
0.23955 0.544683 -0.0308188
0.108115 0.549914 -0.0260275
0.08824 0.549904 -0.022951
0.118101 0.554895 -0.0274625
0.0981337 0.554961 -0.0248931
0.108071 0.559956 -0.0265447
0.0881958 0.560044 -0.023368
0.118063 0.564935 -0.028016
0.0980906 0.565004 -0.0253962
0.108024 0.569997 -0.0270859
0.0881573 0.570086 -0.023911
0.118017 0.575012 -0.0286261
0.0980513 0.575052 -0.0259388
0.107979 0.580061 -0.0276951
0.0881187 0.580138 -0.0245011
0.117987 0.58518 -0.0292212
0.0980293 0.585125 -0.0264348
0.107995 0.590193 -0.0281555
0.0881397 0.590205 -0.0248984
0.118011 0.595377 -0.0297346
0.0980472 0.595234 -0.0268568
0.108011 0.600394 -0.0286705
0.0881755 0.600275 -0.025301
0.118032 0.605442 -0.0302464
0.098071 0.605384 -0.0273507
0.108029 0.610504 -0.0292267
0.088208 0.610353 -0.0257673
0.118066 0.615523 -0.0308059
0.0980804 0.615582 -0.0279681
0.0783798 0.615463 -0.0239608
0.0784016 0.605417 -0.0234751
0.0783829 0.595329 -0.0230825
0.0783724 0.585207 -0.0227227
0.108042 0.620577 -0.0298581
0.0882086 0.620483 -0.0263799
0.118055 0.62561 -0.0315063
0.0980449 0.625644 -0.0287027
0.0783399 0.625499 -0.024669
0.107994 0.630666 -0.0306525
0.0881145 0.630701 -0.0272845
0.11801 0.63574 -0.0323865
0.0979599 0.635716 -0.029583
0.078247 0.635612 -0.0255551
0.107909 0.64079 -0.031632
0.0879942 0.640772 -0.0282687
0.0684557 0.64073 -0.0237456
0.117899 0.645905 -0.0334735
0.097838 0.645841 -0.0306694
0.078084 0.645856 -0.0267094
0.107784 0.650991 -0.0326288
0.0878713 0.650903 -0.0292458
0.0682463 0.650739 -0.0246918
0.117791 0.656174 -0.0344257
0.0977233 0.656063 -0.0315619
0.0779611 0.655957 -0.0275759
0.107668 0.661237 -0.0336128
0.0877503 0.661096 -0.0301572
0.0681403 0.661027 -0.0256208
0.117685 0.666451 -0.0354365
0.0975991 0.666274 -0.0325253
0.077847 0.666099 -0.0284737
0.107563 0.67152 -0.034571
0.0876258 0.671285 -0.0310693
0.0680402 0.671102 -0.0264161
0.0686358 0.630699 -0.0227546
0.168598 0.549936 -0.0307038
0.148178 0.549926 -0.0302967
0.127786 0.549908 -0.0293499
0.178797 0.554991 -0.0310631
0.158386 0.554973 -0.0308403
0.137954 0.554956 -0.0301865
0.16859 0.560103 -0.0313056
0.148162 0.560077 -0.03085
0.127757 0.560034 -0.0298696
0.158369 0.565219 -0.031453
0.178792 0.565175 -0.0317161
0.137933 0.565115 -0.0307422
0.168576 0.570319 -0.0319849
0.148141 0.570283 -0.0314736
0.127724 0.57023 -0.0304513
0.158355 0.575344 -0.0321043
0.178787 0.575279 -0.0323837
0.137908 0.575407 -0.0313548
0.148119 0.580399 -0.0321199
0.168571 0.580331 -0.0326161
0.127671 0.580487 -0.0310943
0.158362 0.585425 -0.0326719
0.1788 0.585357 -0.0329325
0.137905 0.585492 -0.0319385
0.148143 0.590488 -0.0326542
0.168602 0.590435 -0.0331022
0.127686 0.590569 -0.0316698
0.158392 0.595527 -0.033178
0.178836 0.59547 -0.0333785
0.137927 0.595586 -0.0324931
0.148172 0.600592 -0.0331663
0.168639 0.600548 -0.0335656
0.127707 0.600669 -0.0322151
0.158426 0.605641 -0.0336602
0.178875 0.60559 -0.0338188
0.137955 0.605695 -0.0330018
0.1482 0.610707 -0.0336724
0.16867 0.610669 -0.0340497
0.127729 0.610749 -0.0327149
0.188426 0.550059 -0.0327133
0.209028 0.549935 -0.0319052
0.229424 0.549879 -0.0313241
0.249665 0.549931 -0.0309722
0.198744 0.555158 -0.0326096
0.219252 0.555008 -0.0318974
0.239549 0.554952 -0.0314344
0.188394 0.560347 -0.0333928
0.209021 0.56019 -0.0325562
0.229428 0.560127 -0.0319745
0.249671 0.560301 -0.031511
0.198727 0.565344 -0.0332897
0.219252 0.565289 -0.0325948
[...]
POINT_DATA 8383
VECTORS alpha float
4.15622e-06 -1.8855e-08 1.66277e-07
5.05498e-09 1.54472e-05 -1.06548e-06
4.00723e-06 -1.78908e-08 1.73402e-07
-2.01224e-08 1.65765e-05 -1.14724e-06
4.32904e-06 -1.92783e-08 1.22863e-07
2.61842e-08 1.38894e-05 -9.47428e-07
1.23735e-08 7.8823e-06 -5.72349e-07
1.04672e-08 6.82833e-06 -4.94709e-07
8.76636e-09 5.88968e-06 -4.2629e-07
4.77161e-09 5.01951e-06 -3.62171e-07
2.55098e-09 4.17251e-06 -3.01361e-07
9.02602e-10 3.33486e-06 -2.41486e-07
1.80811e-09 2.49954e-06 -1.81368e-07
6.41683e-10 1.66529e-06 -1.20428e-07
3.66345e-11 8.32146e-07 -6.00896e-08
4.49035e-06 -1.85933e-08 6.25011e-08
4.63673e-06 -1.94211e-08 3.28914e-08
4.74295e-06 -1.46105e-08 4.1505e-08
1.96376e-08 9.10713e-06 -6.53396e-07
5.08318e-06 -1.01443e-08 3.06832e-08
5.17405e-06 -9.17268e-09 1.04781e-08
5.25637e-06 -8.07403e-09 -9.35421e-09
5.35013e-06 -7.57752e-09 3.13011e-08
5.41997e-06 -6.51876e-09 1.46662e-08
5.52333e-06 -3.20533e-09 1.6394e-08
5.55371e-06 -2.03158e-09 -2.04638e-09
5.56942e-06 -8.34631e-10 -2.02666e-08
4.15584e-06 1.88519e-08 -1.66266e-07
5.05687e-09 -1.54472e-05 1.06551e-06
3.69606e-15 1.22687e-11 -8.86182e-13
3.54617e-11 -8.32124e-07 6.00748e-08
6.40429e-10 -1.66528e-06 1.20397e-07
1.80795e-09 -2.49954e-06 1.81317e-07
9.02833e-10 -3.33487e-06 2.41405e-07
2.5529e-09 -4.17253e-06 3.01261e-07
4.77593e-09 -5.01955e-06 3.6205e-07
8.76725e-09 -5.88973e-06 4.26271e-07
1.04702e-08 -6.82838e-06 4.94685e-07
1.2379e-08 -7.88235e-06 5.72321e-07
4.00777e-06 1.78935e-08 -1.73426e-07
-2.01218e-08 -1.65765e-05 1.14727e-06
4.32863e-06 1.92749e-08 -1.22856e-07
2.61869e-08 -1.38895e-05 9.47445e-07
5.5694e-06 8.31936e-10 2.02576e-08
5.55362e-06 2.02684e-09 2.03873e-09
5.52319e-06 3.19861e-09 -1.64013e-08
5.41973e-06 6.51009e-09 -1.46622e-08
5.34985e-06 7.56647e-09 -3.12938e-08
5.25605e-06 8.07361e-09 9.35861e-09
5.1737e-06 9.17114e-09 -1.04786e-08
5.0828e-06 1.01416e-08 -3.0688e-08
4.74251e-06 1.46068e-08 -4.15092e-08
1.96439e-08 -9.10718e-06 6.53382e-07
4.63628e-06 1.94152e-08 -3.29101e-08
4.48992e-06 1.85897e-08 -6.25023e-08
3.96597e-09 1.10198e-05 -6.28404e-07
-8.04218e-10 1.11147e-05 -6.54535e-07
-3.60871e-09 1.12348e-05 -6.8112e-07
4.20447e-06 -2.08872e-08 -5.3388e-07
-6.20756e-09 1.13729e-05 -7.03903e-07
4.28973e-06 -2.16981e-08 -5.33882e-07
-2.29593e-08 1.18551e-05 -6.36872e-07
-1.24032e-08 1.15216e-05 -7.20949e-07
4.36594e-06 -2.36281e-08 -5.31232e-07
-2.36133e-08 1.19345e-05 -6.50795e-07
-1.86058e-08 1.16729e-05 -7.3182e-07
4.37781e-06 -2.38808e-08 -5.1948e-07
-2.71647e-08 1.20326e-05 -6.62175e-07
-2.31953e-08 1.1817e-05 -7.45983e-07
4.35735e-06 -2.5253e-08 -5.04291e-07
-3.08122e-08 1.2146e-05 -6.76213e-07
-3.17346e-08 1.19521e-05 -7.56808e-07
4.28468e-06 -2.62761e-08 -4.82127e-07
4.55532e-06 -2.49574e-08 -1.94331e-08
3.10433e-10 1.53581e-05 -1.10191e-06
3.29826e-08 1.62712e-05 -1.16909e-06
4.78308e-06 -2.59356e-08 -2.04528e-08
3.06034e-09 1.52313e-05 -1.0933e-06
3.52334e-08 1.61459e-05 -1.16614e-06
4.67656e-06 -2.21465e-08 -1.15961e-07
4.96859e-06 -2.45762e-08 -1.86801e-08
-1.24229e-09 1.50964e-05 -1.09458e-06
2.96311e-08 1.60125e-05 -1.17331e-06
5.17177e-06 -2.28149e-08 -1.99022e-08
4.8515e-06 -2.07878e-08 -1.20165e-07
1.67342e-08 1.58705e-05 -1.1723e-06
-9.8925e-09 1.49487e-05 -1.09656e-06
-3.20162e-08 1.32763e-05 -9.61745e-07
-2.61327e-08 1.34194e-05 -9.65335e-07
4.53189e-06 -1.83183e-08 -2.37116e-07
-2.32083e-08 1.35512e-05 -9.68999e-07
4.51339e-06 -2.44808e-08 -1.10919e-07
4.3805e-06 -1.98304e-08 -2.31529e-07
-2.63077e-08 1.36752e-05 -9.8193e-07
4.311e-06 -2.36631e-08 -1.04122e-07
4.23703e-06 -2.22529e-08 -2.2113e-07
-3.29854e-09 1.5485e-05 -1.1111e-06
2.99031e-08 1.63945e-05 -1.17828e-06
4.29649e-06 -2.21547e-08 -1.55083e-08
-4.04845e-08 1.38014e-05 -9.83453e-07
-1.17072e-08 1.56006e-05 -1.10905e-06
2.09843e-08 1.65085e-05 -1.17436e-06
4.07424e-06 -2.09085e-08 -9.75089e-08
4.05788e-06 -2.21976e-08 -2.08523e-07
4.11504e-06 -2.00242e-08 -1.36387e-08
3.90797e-06 -1.89559e-08 -9.06904e-08
-5.66586e-08 1.39157e-05 -9.87365e-07
-1.7168e-08 1.64868e-05 -1.15073e-06
4.66596e-06 -1.9718e-08 6.64589e-08
4.81315e-06 -2.05553e-08 3.64154e-08
4.32555e-06 -1.99301e-08 1.77097e-07
4.50255e-06 -1.98769e-08 1.28561e-07
3.18753e-08 1.38053e-05 -9.60909e-07
-1.05793e-08 1.63863e-05 -1.15926e-06
1.50696e-08 1.53527e-05 -1.08009e-06
4.52624e-06 -2.13182e-08 1.89616e-07
4.71192e-06 -2.14247e-08 1.39728e-07
4.88084e-06 -2.03684e-08 7.79174e-08
5.02863e-06 -2.14637e-08 5.10218e-08
-5.93424e-09 1.62772e-05 -1.16816e-06
1.77853e-08 1.52556e-05 -1.08993e-06
3.74083e-08 1.37166e-05 -9.75999e-07
4.81478e-06 -2.34222e-08 2.06372e-07
5.01709e-06 -2.36384e-08 1.53925e-07
5.19893e-06 -2.25984e-08 8.89429e-08
5.35549e-06 -2.44694e-08 6.08477e-08
-4.12291e-09 1.61585e-05 -1.17182e-06
2.04342e-08 1.51441e-05 -1.09838e-06
3.97173e-08 1.36177e-05 -9.85708e-07
5.07446e-06 -2.38903e-08 2.21934e-07
5.29577e-06 -2.34685e-08 1.63234e-07
5.49477e-06 -2.30861e-08 9.98338e-08
5.66315e-06 -2.52891e-08 7.48497e-08
-2.38625e-09 1.60512e-05 -1.16548e-06
2.20327e-08 1.50452e-05 -1.09546e-06
4.11376e-08 1.35291e-05 -9.85708e-07
5.28913e-06 -2.25132e-08 2.34757e-07
5.52871e-06 -2.2144e-08 1.75749e-07
5.74259e-06 -2.09591e-08 1.09459e-07
5.92218e-06 -2.26484e-08 9.08384e-08
-1.90204e-09 1.59298e-05 -1.16522e-06
2.11643e-08 1.49373e-05 -1.09493e-06
4.01277e-08 1.34331e-05 -9.87574e-07
5.53221e-06 -2.142e-08 2.49105e-07
5.80032e-06 -2.12449e-08 1.89714e-07
6.04096e-06 -2.02225e-08 1.22294e-07
6.24281e-06 -2.14005e-08 1.08404e-07
-3.18162e-09 1.57959e-05 -1.16097e-06
1.85981e-08 1.48142e-05 -1.09441e-06
3.66566e-08 1.33235e-05 -9.90567e-07
5.34233e-06 -2.20985e-08 -2.05194e-08
4.99421e-06 -1.96459e-08 -1.25253e-07
4.65175e-06 -1.67948e-08 -2.46255e-07
-1.4818e-09 1.47901e-05 -1.07433e-06
2.48629e-08 1.57067e-05 -1.16171e-06
-2.27624e-08 1.31246e-05 -9.35459e-07
5.47299e-06 -2.17799e-08 -2.30605e-08
5.1003e-06 -1.88343e-08 -1.31197e-07
4.74244e-06 -1.56242e-08 -2.52484e-07
7.13178e-09 1.46164e-05 -1.05063e-06
3.13477e-08 1.55297e-05 -1.13887e-06
-1.27703e-08 1.29607e-05 -9.11139e-07
5.51711e-06 -2.18621e-08 -2.72724e-08
5.1293e-06 -1.83721e-08 -1.36827e-07
4.76494e-06 -1.47362e-08 -2.60141e-07
1.52374e-08 1.44356e-05 -1.02169e-06
3.70554e-08 1.53421e-05 -1.10829e-06
-3.08953e-09 1.2794e-05 -8.84491e-07
5.48817e-06 -2.2823e-08 -3.34108e-08
5.09806e-06 -1.87477e-08 -1.42944e-07
4.74075e-06 -1.45322e-08 -2.67013e-07
2.19897e-08 1.42604e-05 -9.95668e-07
4.14404e-08 1.51536e-05 -1.07996e-06
5.38143e-09 1.26382e-05 -8.60167e-07
5.33235e-06 -1.65723e-08 -3.93135e-08
4.95942e-06 -1.25839e-08 -1.46393e-07
4.62956e-06 -8.49485e-09 -2.69348e-07
4.15097e-08 1.49737e-05 -1.06548e-06
2.5146e-08 1.40972e-05 -9.84718e-07
9.45807e-09 1.25014e-05 -8.52277e-07
5.11447e-06 -1.22862e-08 -4.28973e-08
4.77886e-06 -8.31223e-09 -1.46589e-07
4.49261e-06 -4.34602e-09 -2.69885e-07
3.7341e-08 1.48071e-05 -1.05564e-06
2.33562e-08 1.3957e-05 -9.75214e-07
9.52178e-09 1.23909e-05 -8.44969e-07
5.7422e-06 -2.03793e-08 2.57219e-07
6.04159e-06 -2.06098e-08 2.00028e-07
6.31295e-06 -1.99756e-08 1.34037e-07
6.54178e-06 -2.00743e-08 1.26231e-07
3.89725e-09 1.56421e-05 -1.1487e-06
2.23214e-08 1.46708e-05 -1.08591e-06
3.74167e-08 1.31946e-05 -9.85749e-07
5.91084e-06 -1.99873e-08 2.60986e-07
6.24221e-06 -2.06703e-08 2.06605e-07
6.54676e-06 -2.05942e-08 1.42491e-07
6.80646e-06 -1.85075e-08 1.40769e-07
1.097e-08 1.54699e-05 -1.13108e-06
2.55021e-08 1.45091e-05 -1.07201e-06
3.58365e-08 1.30532e-05 -9.73589e-07
5.98522e-06 -2.01227e-08 2.59291e-07
6.34487e-06 -2.15283e-08 2.07621e-07
6.68168e-06 -2.21755e-08 1.45814e-07
6.9725e-06 -1.68836e-08 1.54281e-07
1.79858e-08 1.52803e-05 -1.11138e-06
2.85458e-08 1.4328e-05 -1.05426e-06
3.54116e-08 1.28868e-05 -9.59619e-07
5.97429e-06 -2.12645e-08 2.52961e-07
6.35336e-06 -2.33993e-08 2.03972e-07
6.71603e-06 -2.49234e-08 1.44308e-07
7.03535e-06 -1.64229e-08 1.60805e-07
2.35211e-08 1.50973e-05 -1.09187e-06
3.04509e-08 1.41476e-05 -1.03622e-06
3.40739e-08 1.27161e-05 -9.46174e-07
5.81837e-06 -1.78197e-08 2.5243e-07
6.20285e-06 -1.98109e-08 2.05076e-07
6.57981e-06 -1.98275e-08 1.44418e-07
6.92234e-06 -1.01171e-08 1.66441e-07
2.6044e-08 1.49275e-05 -1.08045e-06
3.04742e-08 1.39718e-05 -1.02402e-06
3.3344e-08 1.25379e-05 -9.33356e-07
5.57816e-06 -1.57897e-08 2.47631e-07
5.94864e-06 -1.71698e-08 2.01889e-07
6.67742e-06 -6.43698e-09 1.6393e-07
6.32484e-06 -1.80128e-08 1.46319e-07
2.65935e-08 1.47594e-05 -1.07643e-06
2.96049e-08 1.37917e-05 -1.01364e-06
3.11206e-08 1.23552e-05 -9.18527e-07
4.08309e-06 -1.92916e-08 -5.27899e-07
3.92233e-06 -2.15855e-08 -7.02853e-07
2.21856e-08 1.0959e-05 -6.19548e-07
-2.60586e-09 1.18103e-05 -6.33e-07
4.00605e-06 -1.96092e-08 -5.26124e-07
3.9162e-06 -1.99145e-08 -7.1543e-07
4.09836e-08 1.09439e-05 -6.09698e-07
2.0633e-08 1.18045e-05 -6.21162e-07
4.13952e-06 -2.12551e-08 -5.51575e-07
4.08644e-06 -2.18868e-08 -7.60344e-07
6.08889e-08 1.09603e-05 -6.05136e-07
4.34457e-08 1.18182e-05 -6.05534e-07
4.26175e-06 -2.27055e-08 -5.75254e-07
4.26127e-06 -2.49576e-08 -8.04453e-07
7.98542e-08 1.1014e-05 -6.02998e-07
6.67861e-08 1.18611e-05 -5.88544e-07
4.5747e-06 -1.60045e-08 -6.23292e-07
4.59809e-06 -1.79814e-08 -8.7592e-07
9.40121e-08 1.10959e-05 -6.05414e-07
8.76938e-08 1.19232e-05 -5.80615e-07
5.1414e-06 -7.13581e-09 -7.10951e-07
5.14163e-06 -1.08712e-08 -9.85688e-07
1.05642e-07 1.11904e-05 -6.17372e-07
9.81493e-08 1.19768e-05 -6.05393e-07
6.04866e-06 -1.87075e-09 -8.42321e-07
5.9586e-06 -2.60447e-09 -1.14961e-06
1.05381e-07 1.12693e-05 -6.43307e-07
9.26603e-08 1.19895e-05 -6.70742e-07
1.32052e-07 1.75828e-05 -8.9356e-07
1.36352e-07 1.76636e-05 -8.2503e-07
1.1289e-07 1.76796e-05 -7.87124e-07
7.50808e-08 1.76296e-05 -8.0342e-07
7.29405e-06 2.41493e-09 -1.0135e-06
7.02957e-06 1.08307e-08 -1.36794e-06
9.94096e-08 1.13031e-05 -7.12825e-07
8.09955e-08 1.1929e-05 -7.53205e-07
1.02846e-07 1.74114e-05 -1.0196e-06
8.93202e-06 1.11404e-08 -1.24281e-06
8.3932e-06 2.81108e-08 -1.66397e-06
7.6752e-08 1.12314e-05 -7.98631e-07
6.07988e-08 1.17464e-05 -8.44053e-07
5.81858e-08 1.71149e-05 -1.19329e-06
1.08807e-05 2.47712e-08 -1.51364e-06
9.96472e-06 3.77823e-08 -1.99509e-06
8.81953e-06 2.7758e-09 -2.29415e-06
4.30833e-08 1.10005e-05 -9.18623e-07
2.42314e-08 1.13914e-05 -9.62008e-07
-4.58376e-09 1.66306e-05 -1.42288e-06
1.3075e-05 5.73688e-08 -1.83335e-06
1.16878e-05 6.74824e-08 -2.36047e-06
1.00961e-05 4.87046e-08 -2.64688e-06
7.02728e-09 1.05353e-05 -9.85262e-07
-2.48007e-09 1.08041e-05 -1.02043e-06
-3.91153e-08 1.59169e-05 -1.48491e-06
1.5316e-05 1.01049e-07 -2.17406e-06
1.33945e-05 1.2415e-07 -2.73222e-06
1.13141e-05 1.15161e-07 -3.02738e-06
-1.8972e-08 9.79715e-06 -9.81135e-07
-2.68013e-08 9.94483e-06 -1.00947e-06
-6.86029e-08 1.49749e-05 -1.49847e-06
1.73087e-05 1.48085e-07 -2.50828e-06
1.4817e-05 1.68518e-07 -3.05646e-06
1.22484e-05 1.50562e-07 -3.31362e-06
7.61745e-06 -7.42832e-09 -1.97272e-06
4.78419e-06 -9.3758e-09 -4.62811e-08
4.51354e-06 -5.36844e-09 -1.44014e-07
4.29949e-06 -1.56818e-09 -2.63556e-07
5.25317e-08 1.46707e-05 -1.03142e-06
4.02934e-08 1.38527e-05 -9.5604e-07
2.66463e-08 1.23195e-05 -8.31542e-07
4.44681e-06 -8.4678e-09 -4.99365e-08
4.26364e-06 -4.40168e-09 -1.42368e-07
4.13941e-06 -4.54063e-10 -2.58961e-07
5.15541e-08 1.37913e-05 -9.43032e-07
6.47523e-08 1.45688e-05 -9.98718e-07
4.25866e-08 1.22891e-05 -8.14733e-07
4.37097e-06 -1.06258e-08 -5.74008e-08
4.26968e-06 -6.30214e-09 -1.49849e-07
4.21887e-06 -2.08037e-09 -2.70271e-07
6.72935e-08 1.37556e-05 -8.93556e-07
7.85195e-08 1.44994e-05 -9.29783e-07
5.3593e-08 1.22925e-05 -8.08359e-07
4.21573e-06 -1.16161e-08 -1.51019e-07
4.20552e-06 -1.67087e-08 -5.32163e-08
4.26679e-06 -5.69262e-09 -2.80304e-07
8.44013e-08 1.37736e-05 -8.142e-07
9.37172e-08 1.44851e-05 -8.31224e-07
7.09913e-08 1.23351e-05 -7.49439e-07
4.3852e-06 -8.8216e-09 -1.47454e-07
4.26246e-06 -1.39802e-08 -4.33031e-08
4.52663e-06 -2.99266e-09 -2.89149e-07
1.01091e-07 1.38478e-05 -7.25502e-07
1.0723e-07 1.45331e-05 -7.37242e-07
8.93536e-08 1.24233e-05 -6.70241e-07
4.88557e-06 -7.43166e-09 -1.54455e-07
4.67133e-06 -1.32979e-08 -3.46684e-08
5.08542e-06 -1.14947e-09 -3.18787e-07
1.08837e-07 1.39701e-05 -6.91444e-07
1.12609e-07 1.46406e-05 -6.96722e-07
9.85499e-08 1.25437e-05 -6.43896e-07
5.84092e-06 -7.12363e-09 -1.80988e-07
5.57312e-06 -1.47279e-08 -3.3037e-08
6.04791e-06 1.084e-09 -3.82169e-07
5.19457e-06 -1.50999e-08 2.34567e-07
5.5259e-06 -1.59831e-08 1.90738e-07
5.87722e-06 -1.49781e-08 1.34897e-07
6.22659e-06 -6.20257e-09 1.59112e-07
3.35966e-08 1.4608e-05 -1.07887e-06
3.56756e-08 1.3621e-05 -1.00897e-06
3.3194e-08 1.21794e-05 -9.21684e-07
4.77625e-06 -1.6673e-08 2.1731e-07
5.04175e-06 -1.69098e-08 1.74861e-07
5.3434e-06 -1.54051e-08 1.21933e-07
5.66152e-06 -5.77951e-09 1.37507e-07
4.45776e-08 1.4471e-05 -1.04178e-06
4.0961e-08 1.34677e-05 -1.00156e-06
3.62084e-08 1.20096e-05 -9.13627e-07
4.61921e-06 -2.0991e-08 2.13587e-07
4.80443e-06 -2.07087e-08 1.66587e-07
5.03722e-06 -1.94333e-08 1.15137e-07
5.304e-06 -1.04488e-08 1.25246e-07
6.05753e-08 1.43563e-05 -9.6455e-07
5.29166e-08 1.33266e-05 -9.17262e-07
4.40548e-08 1.18526e-05 -8.33969e-07
4.33675e-06 -2.68474e-08 2.0704e-07
4.4095e-06 -2.59777e-08 1.57372e-07
4.54193e-06 -2.37217e-08 1.0675e-07
4.7286e-06 -1.655e-08 1.09993e-07
7.53763e-08 1.43203e-05 -8.54615e-07
6.38616e-08 1.32567e-05 -8.14386e-07
5.11826e-08 1.17537e-05 -7.42138e-07
4.27179e-06 -2.40039e-08 2.12573e-07
4.21358e-06 -2.2186e-08 1.61303e-07
4.2227e-06 -1.89988e-08 1.12551e-07
4.30624e-06 -1.41973e-08 9.85043e-08
9.25025e-08 1.43594e-05 -7.03749e-07
7.68122e-08 1.3257e-05 -6.81173e-07
5.97468e-08 1.17157e-05 -6.26827e-07
4.57625e-06 -2.59176e-08 2.3493e-07
4.38259e-06 -2.17557e-08 1.75478e-07
4.2568e-06 -1.8216e-08 1.25548e-07
4.21917e-06 -1.43767e-08 9.50014e-08
1.04286e-07 1.44616e-05 -6.17231e-07
8.49552e-08 1.33215e-05 -5.99954e-07
6.41721e-08 1.17403e-05 -5.56737e-07
5.41055e-06 -3.16001e-08 2.81612e-07
5.08751e-06 -2.5059e-08 2.1172e-07
4.8211e-06 -1.95465e-08 1.53748e-07
4.65106e-06 -1.76937e-08 1.01531e-07
1.12005e-07 1.4797e-05 -7.17997e-07
9.88208e-08 1.26704e-05 -6.80567e-07
1.09407e-07 1.4123e-05 -7.28353e-07
7.04653e-06 -1.82151e-08 -3.1763e-08
7.29975e-06 -9.21231e-09 -2.25561e-07
7.43593e-06 1.71668e-09 -4.81683e-07
9.90205e-08 1.42782e-05 -8.27065e-07
9.8209e-08 1.49827e-05 -8.26065e-07
9.20084e-08 1.27727e-05 -7.76826e-07
9.35434e-06 -9.98901e-09 -3.03999e-07
9.20552e-06 -2.56538e-08 -3.8636e-08
9.32068e-06 4.2701e-09 -6.4e-07
6.62727e-08 1.43957e-05 -1.03578e-06
6.07325e-08 1.51635e-05 -1.05048e-06
6.45468e-08 1.28017e-05 -9.58008e-07
1.19537e-05 -9.22008e-09 -4.35248e-07
1.20266e-05 -3.27513e-08 -6.85131e-08
1.16296e-05 1.02796e-08 -8.75319e-07
1.22464e-08 1.44183e-05 -1.35631e-06
1.44998e-09 1.52841e-05 -1.41062e-06
1.62729e-08 1.2701e-05 -1.22779e-06
1.50393e-05 1.07541e-08 -5.75821e-07
1.54532e-05 -2.30131e-08 -1.20512e-07
1.43068e-05 3.66896e-08 -1.10602e-06
-1.72639e-08 1.23909e-05 -1.37819e-06
-3.11417e-08 1.42552e-05 -1.57193e-06
-4.79761e-08 1.52555e-05 -1.66107e-06
1.71315e-05 1.0082e-07 -1.26532e-06
1.83727e-05 6.00244e-08 -6.79862e-07
1.92366e-05 1.47184e-08 -1.7704e-07
-9.1785e-08 1.50425e-05 -1.8122e-06
-4.43309e-08 1.18208e-05 -1.43813e-06
-6.86513e-08 1.38602e-05 -1.69109e-06
1.97786e-05 1.77001e-07 -1.46414e-06
2.16359e-05 1.27574e-07 -8.34354e-07
2.3077e-05 6.87826e-08 -2.8911e-07
1.08803e-07 1.46224e-05 -6.22825e-07
8.67705e-08 1.3451e-05 -6.0195e-07
6.32351e-08 1.18306e-05 -5.58931e-07
6.88792e-06 -4.48251e-08 3.55177e-07
6.47228e-06 -3.4204e-08 2.77165e-07
6.08905e-06 -2.5232e-08 2.11397e-07
5.80435e-06 -2.45638e-08 1.22782e-07
1.03202e-07 1.48238e-05 -7.43224e-07
7.80853e-08 1.36362e-05 -7.05683e-07
5.33735e-08 1.19793e-05 -6.54914e-07
9.139e-06 -6.67214e-08 4.45879e-07
8.68437e-06 -5.45687e-08 3.76859e-07
8.21989e-06 -3.74871e-08 3.09825e-07
7.83428e-06 -4.10991e-08 1.61007e-07
7.82335e-08 1.50395e-05 -1.02671e-06
5.386e-08 1.3849e-05 -9.68138e-07
2.95133e-08 1.21766e-05 -8.78695e-07
1.21777e-05 -1.05162e-07 5.34151e-07
1.17725e-05 -8.80268e-08 4.95544e-07
1.12998e-05 -6.20929e-08 4.49289e-07
1.0847e-05 -7.59378e-08 2.71898e-07
2.80257e-08 1.52329e-05 -1.52314e-06
6.72783e-09 1.40693e-05 -1.43097e-06
-1.27738e-08 1.23965e-05 -1.29148e-06
1.59652e-05 -1.39965e-07 6.93012e-07
1.57019e-05 -1.10636e-07 6.46903e-07
1.53024e-05 -8.50057e-08 6.06644e-07
1.48906e-05 -9.58425e-08 4.62853e-07
-8.94391e-09 1.53183e-05 -1.83813e-06
-2.8712e-08 1.42264e-05 -1.71963e-06
-4.47399e-08 1.25786e-05 -1.54397e-06
2.02549e-05 -1.36019e-07 9.90722e-07
2.02341e-05 -1.08538e-07 8.87867e-07
1.99926e-05 -7.55733e-08 7.77054e-07
1.97003e-05 -9.67383e-08 6.24297e-07
-4.40797e-08 1.52691e-05 -2.07676e-06
-6.21551e-08 1.42776e-05 -1.95079e-06
-7.44161e-08 1.26871e-05 -1.74696e-06
2.51515e-05 -7.95582e-08 9.69695e-07
2.47607e-05 -1.12401e-07 1.32862e-06
2.51135e-05 -9.51818e-08 1.15814e-06
2.51152e-05 -6.93047e-08 8.247e-07
1.42225e-08 1.21919e-05 -8.86747e-07
4.92322e-06 -1.5939e-08 4.54336e-08
5.03672e-06 -1.43082e-08 1.63306e-08
5.13896e-06 -1.24077e-08 -1.07273e-08
1.81979e-08 1.21142e-05 -8.93063e-07
2.06947e-08 1.04813e-05 -7.66733e-07
2.19818e-08 9.04494e-06 -6.57402e-07
5.14811e-06 -1.79953e-08 5.03664e-08
5.2605e-06 -1.61284e-08 2.06362e-08
5.35995e-06 -1.39709e-08 -6.84799e-09
2.03259e-08 1.20327e-05 -8.97384e-07
2.30104e-08 1.04067e-05 -7.72641e-07
2.34988e-08 8.97827e-06 -6.62156e-07
5.48829e-06 -2.06596e-08 5.54837e-08
5.60357e-06 -1.85386e-08 2.54023e-08
5.70298e-06 -1.6107e-08 -2.22842e-09
2.18984e-08 1.19424e-05 -9.0129e-07
2.37594e-08 1.03281e-05 -7.75076e-07
2.36194e-08 8.90947e-06 -6.63319e-07
5.81399e-06 -2.18142e-08 6.4179e-08
5.9354e-06 -1.94048e-08 3.30834e-08
6.0375e-06 -1.66516e-08 4.5913e-09
2.42974e-08 1.18746e-05 -8.95762e-07
2.5183e-08 1.02688e-05 -7.71642e-07
2.43388e-08 8.85743e-06 -6.61367e-07
6.09302e-06 -2.06663e-08 7.62543e-08
6.22055e-06 -1.79368e-08 4.50544e-08
6.32509e-06 -1.48322e-08 1.65771e-08
2.61384e-08 1.1799e-05 -8.93423e-07
2.61025e-08 1.02038e-05 -7.70808e-07
2.46037e-08 8.80173e-06 -6.61593e-07
6.44481e-06 -1.99862e-08 8.99192e-08
6.58891e-06 -1.70139e-08 5.82756e-08
6.70524e-06 -1.36233e-08 2.93765e-08
2.78286e-08 1.1709e-05 -8.91946e-07
2.69248e-08 1.01269e-05 -7.70342e-07
2.48232e-08 8.73662e-06 -6.61958e-07
1.90692e-08 1.05489e-05 -7.63105e-07
5.25803e-06 -1.08198e-08 3.23457e-08
5.34656e-06 -9.64721e-09 1.22172e-08
5.42694e-06 -8.34445e-09 -7.4304e-09
9.87462e-09 5.84178e-06 -4.2762e-07
1.55953e-08 7.82609e-06 -5.72057e-07
5.64552e-06 -8.87245e-09 -4.678e-09
1.32772e-08 6.77477e-06 -4.9643e-07
5.4836e-06 -1.13051e-08 3.71527e-08
5.56804e-06 -1.02701e-08 1.67334e-08
1.76354e-08 7.766e-06 -5.74396e-07
1.40695e-08 6.72199e-06 -4.96474e-07
1.1054e-08 5.79288e-06 -4.27877e-07
5.83133e-06 -1.26391e-08 4.22785e-08
5.91485e-06 -1.10331e-08 2.11091e-08
5.98942e-06 -9.27516e-09 6.50857e-10
1.85897e-08 7.70513e-06 -5.73088e-07
1.50292e-08 6.66508e-06 -4.97567e-07
1.15087e-08 5.74166e-06 -4.28827e-07
6.17434e-06 -1.30346e-08 4.69379e-08
6.25787e-06 -1.1182e-08 2.48114e-08
6.33117e-06 -9.16571e-09 3.48184e-09
1.97971e-08 7.66121e-06 -5.69658e-07
1.56532e-08 6.62549e-06 -4.94217e-07
1.17093e-08 5.70585e-06 -4.25516e-07
6.46994e-06 -1.15942e-08 5.07745e-08
6.55141e-06 -1.00774e-08 2.84978e-08
6.62214e-06 -7.72908e-09 6.71183e-09
2.0731e-08 7.61491e-06 -5.68834e-07
1.61029e-08 6.58474e-06 -4.93011e-07
1.18087e-08 5.66973e-06 -4.23978e-07
6.86617e-06 -1.08559e-08 5.68071e-08
6.95354e-06 -9.16235e-09 3.32925e-08
7.02727e-06 -6.53617e-09 1.04623e-08
2.14076e-08 7.56145e-06 -5.69327e-07
1.63537e-08 6.53878e-06 -4.92833e-07
1.17599e-08 5.63002e-06 -4.23283e-07
6.78062e-06 -1.94324e-08 1.04096e-07
6.94667e-06 -1.63979e-08 7.22147e-08
7.07983e-06 -1.29029e-08 4.29873e-08
2.99908e-08 1.16015e-05 -8.87233e-07
2.71868e-08 1.0035e-05 -7.69062e-07
2.37341e-08 8.65934e-06 -6.63418e-07
7.08848e-06 -1.91267e-08 1.1657e-07
7.28295e-06 -1.63538e-08 8.55498e-08
7.43957e-06 -1.30914e-08 5.70409e-08
3.17196e-08 1.14745e-05 -8.7908e-07
2.69982e-08 9.92604e-06 -7.64666e-07