# vtk DataFile Version 3.0
vtk output
ASCII
DATASET POLYDATA
POINTS 26967 float
0.152523 1.3399 -0.0757599
0.152806 1.32992 -0.0751997
0.153112 1.31993 -0.0745907
0.141437 1.33507 -0.0739052
0.153431 1.30994 -0.0739509
0.141802 1.32508 -0.0732885
0.153743 1.29996 -0.0733092
0.142159 1.31509 -0.0726628
0.130201 1.34023 -0.0722068
0.154046 1.28997 -0.0726804
0.15433 1.27998 -0.0720451
0.142534 1.3051 -0.0720048
0.130669 1.33024 -0.0714774
0.141043 1.34506 -0.0745791
0.152213 1.34989 -0.0763189
0.129815 1.35022 -0.0727976
0.140693 1.35505 -0.0751764
0.15189 1.35987 -0.0769254
0.129448 1.3602 -0.0733839
0.142846 1.29512 -0.0713831
0.15461 1.27 -0.0714156
0.131075 1.32024 -0.0708568
0.14313 1.28513 -0.0708146
0.11902 1.35537 -0.0704081
0.154864 1.26001 -0.0708205
0.131429 1.31025 -0.0702866
0.119348 1.34537 -0.0699165
0.155108 1.25002 -0.0702207
0.143412 1.27514 -0.0702293
0.131729 1.30026 -0.0697417
0.143703 1.26515 -0.0696171
0.119701 1.33538 -0.0693567
0.155308 1.24004 -0.0696615
0.13202 1.29027 -0.0692058
0.155521 1.23005 -0.0690635
0.143964 1.25516 -0.0690175
0.316671 1.19344 -0.0700406
0.327025 1.1884 -0.0697635
0.296008 1.1936 -0.0697751
0.316728 1.18347 -0.0693528
0.306353 1.18853 -0.0696115
0.275375 1.19377 -0.0693879
0.200607 1.18955 -0.0689517
0.211438 1.19442 -0.0692631
0.233235 1.19418 -0.06897
0.254378 1.19396 -0.0692331
0.327079 1.17842 -0.0690856
0.296068 1.18362 -0.0691102
0.285732 1.18869 -0.0692249
0.378156 1.19312 -0.0707872
0.398429 1.19304 -0.0709098
0.418773 1.19299 -0.0708982
0.439128 1.19294 -0.0709825
0.459437 1.19291 -0.0709989
0.479735 1.1929 -0.0708822
0.368018 1.18818 -0.0704613
0.388328 1.18809 -0.0704994
0.408606 1.18803 -0.0705998
0.357763 1.19321 -0.0707328
0.428988 1.18798 -0.0705917
0.449283 1.18794 -0.07074
0.469584 1.18792 -0.070591
0.489868 1.18791 -0.0705609
0.33715 1.19332 -0.070329
0.35781 1.18323 -0.070077
0.378205 1.18315 -0.0701204
0.398467 1.18308 -0.0702462
0.347517 1.18827 -0.0702526
0.418799 1.18302 -0.0702335
0.439137 1.18298 -0.0703237
0.459434 1.18295 -0.0703355
0.479721 1.18293 -0.0702279
0.499933 1.18292 -0.0702879
0.337213 1.18335 -0.0696878
0.368074 1.17821 -0.0697946
0.388374 1.17812 -0.0698287
0.408642 1.17806 -0.069926
0.429005 1.17801 -0.0699272
0.449287 1.17797 -0.0700772
0.469577 1.17795 -0.06993
0.489851 1.17794 -0.069909
0.357876 1.17326 -0.0694431
0.378253 1.17318 -0.0694703
0.398501 1.17311 -0.0696001
0.347585 1.1783 -0.0696199
0.449294 1.168 -0.0694177
0.418827 1.17306 -0.0695846
0.439147 1.17301 -0.0696616
0.45943 1.17298 -0.0696721
0.479708 1.17296 -0.0695723
0.3373 1.17337 -0.0690753
0.368124 1.16824 -0.0691435
0.388413 1.16816 -0.0691823
0.408673 1.1681 -0.0692684
0.42902 1.16805 -0.0692756
0.459433 1.16301 -0.069008
0.469567 1.16799 -0.0692765
0.48983 1.16797 -0.0692636
0.200396 1.19953 -0.0696042
0.178105 1.19979 -0.0693531
0.222306 1.19929 -0.0694276
0.243877 1.19906 -0.0693277
0.189174 1.20465 -0.0699206
0.211261 1.2044 -0.0699212
0.233072 1.20416 -0.0696565
0.200183 1.20951 -0.0702797
0.166053 1.24487 -0.0712451
0.166267 1.23488 -0.0706225
0.188954 1.21463 -0.0705873
0.199993 1.21949 -0.0709667
0.188729 1.22461 -0.0712604
0.199817 1.22947 -0.0716621
0.188515 1.23458 -0.0719048
0.199622 1.23945 -0.0722961
0.188267 1.24456 -0.0725464
0.177155 1.23972 -0.0718456
0.177373 1.22974 -0.0712885
0.177619 1.21976 -0.0706476
0.166455 1.2249 -0.0700792
0.177886 1.20978 -0.0699757
0.222141 1.20926 -0.0701093
0.24373 1.20904 -0.0699883
0.211096 1.21437 -0.0705912
0.232918 1.21414 -0.0703389
0.221976 1.21924 -0.0708147
0.243594 1.21902 -0.0706569
0.210917 1.22435 -0.071279
0.23276 1.22412 -0.0710325
0.221812 1.22922 -0.0714945
0.243449 1.22899 -0.0713226
0.210762 1.23433 -0.0719152
0.232631 1.23409 -0.0716799
0.210562 1.24431 -0.072549
0.221651 1.23919 -0.0721416
0.232465 1.24407 -0.0723348
0.243332 1.23897 -0.0719551
0.165452 1.27483 -0.0729457
0.165713 1.26485 -0.0722967
0.165871 1.25486 -0.0717849
0.188028 1.25454 -0.0730907
0.199404 1.24943 -0.0729281
0.199195 1.2594 -0.0735329
0.176595 1.25968 -0.0730433
0.176348 1.26966 -0.0737022
0.187788 1.26452 -0.0737109
0.198988 1.26938 -0.0741647
0.187525 1.2745 -0.0743507
0.17687 1.2497 -0.0724742
0.210369 1.25429 -0.0731678
0.210189 1.26427 -0.0737994
0.210002 1.27425 -0.0744259
0.221474 1.24917 -0.0727587
0.243177 1.24895 -0.0726105
0.232302 1.25404 -0.0729893
0.2213 1.25915 -0.0733933
0.243026 1.25892 -0.0732606
0.232149 1.26402 -0.0736501
0.221139 1.26913 -0.0740369
0.242876 1.2689 -0.0739249
0.231992 1.27399 -0.0743012
0.166824 1.21491 -0.0694745
0.189398 1.19467 -0.0693115
0.285657 1.19867 -0.0698884
0.264859 1.19885 -0.0696382
0.275287 1.20374 -0.0700674
0.254251 1.20394 -0.0698897
0.28559 1.20864 -0.0705443
0.264757 1.20882 -0.070303
0.275212 1.21371 -0.0707416
0.254144 1.21391 -0.0705488
0.285519 1.21862 -0.0712125
0.264656 1.2188 -0.0709801
0.254033 1.22389 -0.0712089
0.275127 1.22369 -0.0714177
0.285428 1.22859 -0.0718752
0.26455 1.22877 -0.0716352
0.253908 1.23386 -0.0718484
0.275033 1.23366 -0.0720734
0.326957 1.19837 -0.0704412
0.306288 1.1985 -0.0702853
0.316596 1.20342 -0.0707298
0.295932 1.20357 -0.0704535
0.326894 1.20834 -0.0711232
0.306225 1.20847 -0.0709616
0.316527 1.21339 -0.0714355
0.295865 1.21354 -0.071144
0.326827 1.21831 -0.0718115
0.306154 1.21845 -0.0716486
0.316446 1.22336 -0.0721145
0.295789 1.22351 -0.0718048
0.326752 1.22828 -0.0724789
0.306075 1.22842 -0.0723092
0.316373 1.23333 -0.072774
0.295713 1.23348 -0.0724484
0.285344 1.23856 -0.0725058
0.264441 1.23874 -0.0722375
0.253771 1.24384 -0.0724669
0.274946 1.24364 -0.0727029
0.285271 1.24853 -0.0731562
0.264342 1.24872 -0.0728493
0.253659 1.25382 -0.0731123
0.274844 1.25361 -0.0733554
0.285186 1.25851 -0.0738181
0.264235 1.25869 -0.0734757
0.253533 1.26379 -0.0737462
0.274743 1.26358 -0.0740093
0.285091 1.26848 -0.0744718
0.253417 1.27376 -0.0743683
0.264114 1.26867 -0.0740967
0.274628 1.27355 -0.0746315
0.284995 1.27845 -0.0751225
0.264003 1.27864 -0.0747256
0.326695 1.23825 -0.0731364
0.306007 1.23839 -0.0729564
0.316322 1.2433 -0.0734443
0.295651 1.24346 -0.0731122
0.305952 1.24836 -0.0736248
0.326636 1.24822 -0.073812
0.316255 1.25327 -0.0741152
0.295573 1.25343 -0.0737746
0.305885 1.25833 -0.0742834
0.326573 1.25819 -0.074494
0.31618 1.26324 -0.0747844
0.295494 1.2634 -0.0744468
0.305808 1.2683 -0.0749387
0.326507 1.26816 -0.0751674
0.316103 1.27321 -0.0754396
0.295407 1.27337 -0.0750993
0.305731 1.27827 -0.0756018
0.326432 1.27813 -0.0758406
0.176117 1.27965 -0.0743361
0.198764 1.27936 -0.0747333
0.164448 1.31478 -0.0753966
0.164716 1.30479 -0.0747781
0.165182 1.28482 -0.0735856
0.18728 1.28448 -0.074929
0.164927 1.2948 -0.0742151
0.175907 1.28963 -0.0749604
0.198547 1.28933 -0.0753538
0.187019 1.29446 -0.0756059
0.198292 1.29931 -0.0760062
0.175672 1.29962 -0.075622
0.18673 1.30444 -0.0762581
0.175468 1.3096 -0.0762406
0.198058 1.30929 -0.0766125
0.186499 1.31442 -0.0768981
0.175272 1.31958 -0.0768521
0.197822 1.31926 -0.0772371
0.220962 1.2791 -0.0746655
0.242729 1.27887 -0.0745673
0.209815 1.28422 -0.0750262
0.231823 1.28397 -0.0749572
0.220791 1.28908 -0.0752969
0.242594 1.28884 -0.0752137
0.209609 1.2942 -0.0756455
0.231654 1.29394 -0.0756208
0.220603 1.29905 -0.0759449
0.242453 1.29882 -0.0758635
0.209407 1.30417 -0.0762657
0.231502 1.30392 -0.0762491
0.22045 1.30903 -0.0765669
0.242321 1.3088 -0.0764919
0.209204 1.31415 -0.0768932
0.23135 1.31389 -0.0768805
0.220286 1.31901 -0.0771822
0.242194 1.31877 -0.0771133
0.163646 1.34474 -0.0771797
0.163354 1.35472 -0.07778
0.164178 1.32476 -0.0760011
0.186289 1.3244 -0.0775381
0.163896 1.33475 -0.0766206
0.175042 1.32957 -0.0774672
0.197583 1.32924 -0.0778519
0.186061 1.33438 -0.0781705
0.174784 1.33955 -0.0780989
0.174533 1.34953 -0.0787183
0.1743 1.35952 -0.0793269
0.197368 1.33921 -0.0784725
0.185858 1.34436 -0.0788044
0.197145 1.34919 -0.0790624
0.18565 1.35435 -0.0794279
0.196938 1.35917 -0.0797207
0.209024 1.32412 -0.0775409
0.231215 1.32387 -0.0775022
0.220114 1.32899 -0.0777914
0.242046 1.32874 -0.0777669
0.20881 1.33409 -0.0781787
0.231055 1.33385 -0.0781371
0.241875 1.33871 -0.0784311
0.219931 1.33896 -0.0784174
0.20861 1.34407 -0.07879
0.2309 1.34382 -0.0787433
0.2417 1.34869 -0.0791029
0.21975 1.34893 -0.0790204
0.208405 1.35404 -0.07939
0.230733 1.3538 -0.0793587
0.241549 1.35866 -0.0797402
0.219568 1.35891 -0.0796289
0.253287 1.28374 -0.0750107
0.274519 1.28353 -0.0752616
0.284907 1.28842 -0.0757701
0.263889 1.28862 -0.0753375
0.253154 1.29371 -0.0756486
0.274403 1.2935 -0.0758983
0.284809 1.29839 -0.0764413
0.263765 1.29859 -0.0759615
0.253034 1.30369 -0.0762535
0.274294 1.30347 -0.0765291
0.263647 1.30857 -0.0765768
0.284702 1.30837 -0.0770962
0.252905 1.31367 -0.0768686
0.27418 1.31345 -0.0771384
0.263544 1.31854 -0.0772116
0.284602 1.31834 -0.0777446
0.31604 1.28318 -0.0760844
0.295328 1.28334 -0.0757468
0.326378 1.2881 -0.0764872
0.305667 1.28825 -0.0762196
0.315977 1.29315 -0.0767154
0.295248 1.29332 -0.0763644
0.326321 1.29807 -0.0771488
0.305602 1.29822 -0.0768505
0.315918 1.30312 -0.0773609
0.295167 1.30329 -0.0770108
0.326256 1.30804 -0.077817
0.305528 1.30819 -0.0774805
0.315856 1.3131 -0.0779897
0.295083 1.31326 -0.0776509
0.326189 1.31801 -0.0784812
0.305456 1.31816 -0.078115
0.252782 1.32364 -0.0775001
0.252648 1.33361 -0.078141
0.25251 1.34359 -0.0788062
0.252355 1.35356 -0.0794663
0.27406 1.32342 -0.0777591
0.263419 1.32852 -0.0778655
0.284482 1.32831 -0.0783975
0.273935 1.33339 -0.0783813
0.263295 1.33849 -0.0785274
0.28436 1.33828 -0.0790611
0.273816 1.34336 -0.0790108
0.263162 1.34846 -0.0791896
0.284235 1.34825 -0.0797059
0.273706 1.35334 -0.0796619
0.26304 1.35844 -0.0798546
0.28415 1.35823 -0.0803385
0.315779 1.32307 -0.0786329
0.294985 1.32323 -0.0782996
0.326118 1.32798 -0.0791314
0.30537 1.32813 -0.0787595
0.315701 1.33304 -0.0792867
0.294889 1.3332 -0.0789269
0.326042 1.33795 -0.0798023
0.305279 1.3381 -0.0794258
0.315621 1.34301 -0.0799449
0.29479 1.34318 -0.0795747
0.325968 1.34792 -0.0804741
0.305191 1.34808 -0.0800797
[...]
POINT_DATA 26967
VECTORS alpha float
6.05972e-07 -7.39975e-09 -5.92477e-09
5.9287e-07 -7.22e-09 -5.94338e-09
5.81744e-07 -7.04339e-09 -6.29986e-09
-5.66598e-07 1.91606e-05 -1.13056e-06
5.7142e-07 -6.89223e-09 -6.77092e-09
-5.80645e-07 1.91724e-05 -1.15907e-06
5.53446e-07 -6.66699e-09 -6.91765e-09
-5.51011e-07 1.91829e-05 -1.12398e-06
5.72795e-07 -6.75965e-09 -5.08552e-08
5.42427e-07 -6.50973e-09 -6.93284e-09
5.16313e-07 -6.17551e-09 -6.93367e-09
-5.31398e-07 1.91927e-05 -1.10138e-06
5.57432e-07 -6.57805e-09 -5.09148e-08
-5.46092e-07 1.91493e-05 -1.1027e-06
6.21555e-07 -7.60806e-09 -5.89119e-09
5.8725e-07 -6.95112e-09 -5.15331e-08
-5.40009e-07 1.91377e-05 -1.09046e-06
6.27248e-07 -7.70644e-09 -5.42898e-09
5.92696e-07 -7.01484e-09 -5.15798e-08
-5.4683e-07 1.9203e-05 -1.13472e-06
5.08928e-07 -6.06045e-09 -7.06716e-09
5.46181e-07 -6.41752e-09 -5.03161e-08
-5.64903e-07 1.92128e-05 -1.15013e-06
-5.3587e-07 1.72472e-05 -8.92132e-07
4.98658e-07 -5.90421e-09 -6.99638e-09
5.37541e-07 -6.27419e-09 -4.93451e-08
-5.2877e-07 1.72574e-05 -9.26876e-07
4.88374e-07 -5.72953e-09 -6.49316e-09
-5.44424e-07 1.92214e-05 -1.1511e-06
5.22017e-07 -6.05355e-09 -4.72048e-08
-4.94462e-07 1.92297e-05 -1.12047e-06
-5.16576e-07 1.72665e-05 -9.41068e-07
4.82266e-07 -5.61278e-09 -4.9296e-09
5.12803e-07 -5.90154e-09 -4.56321e-08
4.73639e-07 -5.46573e-09 -4.02945e-09
-4.74978e-07 1.92391e-05 -1.11638e-06
-5.66963e-08 1.00252e-05 -6.6795e-07
5.07482e-07 -2.60123e-09 4.31168e-09
-5.9956e-08 1.14901e-05 -7.42619e-07
-5.09327e-08 1.00299e-05 -6.66146e-07
4.99455e-07 -2.98199e-09 4.07053e-09
-8.2731e-08 1.31841e-05 -8.57022e-07
4.67963e-07 -4.82188e-09 2.60597e-08
-2.35604e-07 1.88788e-05 -1.17457e-06
-1.51106e-07 1.70806e-05 -1.0791e-06
-1.19166e-07 1.50908e-05 -9.48499e-07
4.96717e-07 -2.52266e-09 3.81226e-09
-5.6773e-08 1.14953e-05 -7.44665e-07
4.90028e-07 -3.37975e-09 3.29454e-09
-1.18455e-08 6.47935e-06 -4.42218e-07
-1.10727e-08 5.39973e-06 -3.63084e-07
-7.56002e-09 4.32362e-06 -2.95407e-07
-3.40415e-09 3.24498e-06 -2.21816e-07
-2.78448e-09 2.16372e-06 -1.48435e-07
-4.59547e-10 1.08178e-06 -7.4116e-08
5.15467e-07 -1.74487e-09 4.09921e-09
5.20796e-07 -1.43054e-09 3.26102e-09
5.26028e-07 -1.23537e-09 3.25704e-09
-1.66119e-08 7.58133e-06 -5.13467e-07
5.2907e-07 -9.48558e-10 2.39371e-09
5.32507e-07 -5.22e-10 6.14262e-09
5.34055e-07 -4.12361e-10 2.95266e-09
5.34642e-07 -3.23046e-10 -1.38285e-09
-2.93757e-08 8.74412e-06 -5.8162e-07
-1.7504e-08 7.58499e-06 -5.1552e-07
-1.15425e-08 6.48237e-06 -4.42546e-07
-1.07448e-08 5.40224e-06 -3.63814e-07
5.11435e-07 -2.10861e-09 4.42352e-09
-6.52897e-09 4.32565e-06 -2.96621e-07
-2.78268e-09 3.24649e-06 -2.22469e-07
-2.33433e-09 2.16473e-06 -1.4887e-07
-2.28339e-10 1.08229e-06 -7.42779e-08
2.71505e-14 -1.41598e-11 9.70017e-13
-2.91458e-08 8.74848e-06 -5.8034e-07
5.04331e-07 -1.6895e-09 4.00709e-09
5.09629e-07 -1.38908e-09 3.1176e-09
5.14746e-07 -1.20655e-09 2.90154e-09
5.17638e-07 -9.13049e-10 2.34873e-09
5.21032e-07 -5.01365e-10 5.97664e-09
5.22561e-07 -4.0216e-10 2.67196e-09
5.23169e-07 -3.19704e-10 -1.60416e-09
-1.67729e-08 7.5883e-06 -5.19941e-07
-1.08998e-08 6.48519e-06 -4.44438e-07
-1.02088e-08 5.4046e-06 -3.66132e-07
5.00335e-07 -2.03028e-09 4.74547e-09
5.1025e-07 -4.81655e-10 5.8559e-09
-5.39692e-09 4.32752e-06 -2.98991e-07
-2.23437e-09 3.2479e-06 -2.24044e-07
-1.92143e-09 2.16567e-06 -1.49902e-07
-4.63061e-11 1.08276e-06 -7.47763e-08
-2.845e-08 8.75232e-06 -5.84662e-07
4.94129e-07 -1.63181e-09 4.07601e-09
4.99252e-07 -1.33879e-09 3.19447e-09
5.04125e-07 -1.17192e-09 2.6977e-09
5.06827e-07 -8.75367e-10 2.39991e-09
-1.75465e-09 2.1667e-06 -1.49783e-07
5.11572e-07 -3.9194e-10 2.44822e-09
5.12176e-07 -3.18576e-10 -1.8152e-09
4.74676e-07 -4.91884e-09 2.60339e-08
4.66217e-07 -5.07845e-09 2.1874e-08
4.81697e-07 -4.66698e-09 2.01057e-08
4.88849e-07 -4.34614e-09 1.23083e-08
-3.18232e-07 2.00795e-05 -1.22013e-06
-2.35707e-07 1.88706e-05 -1.18885e-06
-1.54716e-07 1.70729e-05 -1.08788e-06
4.85161e-07 -5.05471e-09 2.68322e-08
-4.0901e-07 2.02495e-05 -1.22525e-06
-4.11903e-07 2.02587e-05 -1.2476e-06
-3.12943e-07 2.00702e-05 -1.23349e-06
4.92375e-07 -5.1574e-09 2.7186e-08
-3.09176e-07 2.00614e-05 -1.23515e-06
5.00247e-07 -5.24356e-09 2.84561e-08
-3.07593e-07 2.0053e-05 -1.25187e-06
5.0993e-07 -5.36038e-09 2.92406e-08
-3.05878e-07 2.00438e-05 -1.26998e-06
5.0269e-07 -5.5774e-09 2.17764e-08
4.92836e-07 -5.44991e-09 2.19762e-08
4.84844e-07 -5.34569e-09 2.21306e-08
-3.94448e-07 2.02671e-05 -1.23311e-06
4.77763e-07 -5.23262e-09 2.22423e-08
4.92205e-07 -4.79521e-09 2.08089e-08
4.98916e-07 -4.45955e-09 1.31733e-08
-2.30547e-07 1.8862e-05 -1.18645e-06
-1.53624e-07 1.7065e-05 -1.08912e-06
4.99164e-07 -4.89109e-09 2.14109e-08
5.05868e-07 -4.55229e-09 1.39528e-08
-2.29258e-07 1.88537e-05 -1.18654e-06
-1.55504e-07 1.70572e-05 -1.09019e-06
5.06433e-07 -4.97686e-09 2.21364e-08
5.12671e-07 -4.63113e-09 1.48332e-08
-2.23611e-07 1.88453e-05 -1.17672e-06
-1.55089e-07 1.70494e-05 -1.09121e-06
-2.19746e-07 1.88366e-05 -1.18859e-06
5.16099e-07 -5.08807e-09 2.28344e-08
-1.5235e-07 1.70411e-05 -1.103e-06
5.22228e-07 -4.73388e-09 1.56659e-08
-4.26501e-07 2.02209e-05 -1.22702e-06
-4.16618e-07 2.02304e-05 -1.23193e-06
-4.06896e-07 2.02398e-05 -1.22839e-06
-3.13501e-07 2.00343e-05 -1.24952e-06
5.16865e-07 -5.44203e-09 2.9898e-08
5.27291e-07 -5.59346e-09 3.01775e-08
5.21276e-07 -5.85299e-09 2.21081e-08
5.32467e-07 -6.00744e-09 2.2852e-08
-3.16916e-07 2.00244e-05 -1.25488e-06
5.37758e-07 -5.72806e-09 3.08893e-08
-3.38749e-07 2.0015e-05 -1.24602e-06
5.10227e-07 -5.67641e-09 2.22032e-08
-2.21694e-07 1.88281e-05 -1.18118e-06
-2.19784e-07 1.88192e-05 -1.17647e-06
-2.35174e-07 1.88106e-05 -1.18228e-06
5.23e-07 -5.18985e-09 2.28713e-08
5.28924e-07 -4.82014e-09 1.5977e-08
-1.6046e-07 1.70334e-05 -1.10689e-06
5.33077e-07 -5.3175e-09 2.3387e-08
5.38798e-07 -4.93493e-09 1.65537e-08
-1.61288e-07 1.70251e-05 -1.10613e-06
5.42906e-07 -5.43751e-09 2.40924e-08
5.48091e-07 -5.04133e-09 1.74e-08
-1.79014e-07 1.70171e-05 -1.11038e-06
-4.22589e-07 2.02768e-05 -1.25593e-06
-3.11088e-07 2.00883e-05 -1.21082e-06
4.97001e-07 -3.44355e-09 3.48816e-09
4.9197e-07 -3.90893e-09 8.19173e-09
-7.651e-08 1.31779e-05 -8.56987e-07
-1.1406e-07 1.50837e-05 -9.5662e-07
5.07006e-07 -3.51582e-09 3.95685e-09
5.02652e-07 -3.9975e-09 8.63527e-09
-6.88748e-08 1.31718e-05 -8.58024e-07
-1.04507e-07 1.50768e-05 -9.58795e-07
5.14439e-07 -3.56341e-09 4.45555e-09
5.10205e-07 -4.054e-09 9.07083e-09
-9.60273e-08 1.50698e-05 -9.58685e-07
-6.16367e-08 1.31652e-05 -8.57442e-07
5.21361e-07 -3.59913e-09 4.98899e-09
5.17465e-07 -4.10839e-09 9.36059e-09
-9.00288e-08 1.50629e-05 -9.61774e-07
-6.00136e-08 1.31589e-05 -8.64255e-07
5.14066e-07 -2.64607e-09 4.91558e-09
5.06229e-07 -3.03938e-09 4.26398e-09
-5.22875e-08 1.00202e-05 -6.71548e-07
-5.51308e-08 1.14844e-05 -7.49328e-07
5.23845e-07 -2.69748e-09 5.54531e-09
5.16036e-07 -3.10088e-09 4.67763e-09
-4.86156e-08 1.00152e-05 -6.75979e-07
-4.84152e-08 1.14789e-05 -7.50067e-07
5.31571e-07 -2.73224e-09 5.96558e-09
5.23573e-07 -3.14709e-09 4.96799e-09
-4.39239e-08 1.00101e-05 -6.77046e-07
-4.25212e-08 1.1473e-05 -7.5523e-07
5.38116e-07 -2.76198e-09 6.38113e-09
5.30194e-07 -3.18779e-09 5.15544e-09
-3.95315e-08 1.00053e-05 -6.76609e-07
-3.91419e-08 1.14676e-05 -7.57759e-07
5.31611e-07 -3.67442e-09 5.41662e-09
5.27723e-07 -4.206e-09 9.61035e-09
-8.6569e-08 1.50557e-05 -9.65752e-07
-6.81139e-08 1.31525e-05 -8.69029e-07
5.38604e-07 -3.74693e-09 5.55912e-09
5.34868e-07 -4.30025e-09 9.59423e-09
-8.78042e-08 1.50482e-05 -9.73819e-07
-7.12739e-08 1.31458e-05 -8.78213e-07
5.48779e-07 -3.83734e-09 5.77397e-09
5.45186e-07 -4.41297e-09 9.66405e-09
-8.77737e-08 1.50405e-05 -9.77055e-07
-6.95075e-08 1.31393e-05 -8.78094e-07
5.57866e-07 -3.91814e-09 5.96314e-09
-9.87194e-08 1.50331e-05 -9.85924e-07
5.54553e-07 -4.51627e-09 9.88173e-09
-7.76765e-08 1.31327e-05 -8.80362e-07
5.64924e-07 -3.98754e-09 6.15623e-09
5.61387e-07 -4.6017e-09 1.01385e-08
5.48677e-07 -2.82199e-09 6.91419e-09
5.40542e-07 -3.25384e-09 5.52232e-09
-4.07733e-08 1.00004e-05 -6.75119e-07
-4.13539e-08 1.14621e-05 -7.58261e-07
5.47556e-07 -3.30978e-09 5.85641e-09
5.55671e-07 -2.86519e-09 7.46624e-09
-4.02089e-08 9.99531e-06 -6.75513e-07
-4.35522e-08 1.14565e-05 -7.64062e-07
5.57694e-07 -3.38699e-09 6.02581e-09
5.65872e-07 -2.92811e-09 7.80963e-09
-3.76105e-08 9.99041e-06 -6.74425e-07
-4.02912e-08 1.14509e-05 -7.63691e-07
5.66469e-07 -3.4509e-09 6.14092e-09
5.7451e-07 -2.97993e-09 8.06627e-09
-4.09435e-08 9.98535e-06 -6.7734e-07
-4.6116e-08 1.14453e-05 -7.70547e-07
5.7359e-07 -3.50552e-09 6.36333e-09
5.81783e-07 -3.02459e-09 8.35428e-09
5.40152e-07 -6.1035e-09 2.40242e-08
5.45263e-07 -5.8154e-09 3.14064e-08
-4.2601e-07 2.01813e-05 -1.19057e-06
-4.084e-07 2.01916e-05 -1.22357e-06
-4.12722e-07 2.02111e-05 -1.23176e-06
-3.38586e-07 2.00048e-05 -1.26447e-06
-4.04753e-07 2.02011e-05 -1.23043e-06
5.6612e-07 -6.42251e-09 2.54641e-08
5.70741e-07 -6.10472e-09 3.32339e-08
-3.35859e-07 1.9995e-05 -1.28401e-06
5.83565e-07 -6.26241e-09 3.41047e-08
5.78145e-07 -6.57834e-09 2.62437e-08
-3.42344e-07 1.99857e-05 -1.2863e-06
5.96383e-07 -6.81447e-09 2.69593e-08
6.0222e-07 -6.49279e-09 3.47808e-08
-3.46824e-07 1.99762e-05 -1.25279e-06
6.06811e-07 -6.95525e-09 2.72819e-08
6.13418e-07 -6.62328e-09 3.53917e-08
5.4998e-07 -5.52836e-09 2.48047e-08
5.55011e-07 -5.11614e-09 1.812e-08
-2.3152e-07 1.88007e-05 -1.17409e-06
-1.7924e-07 1.70084e-05 -1.11874e-06
5.74345e-07 -5.78222e-09 2.61698e-08
5.78788e-07 -5.34008e-09 1.92452e-08
-2.42856e-07 1.87914e-05 -1.19792e-06
-1.83198e-07 1.70005e-05 -1.11387e-06
5.87576e-07 -5.93663e-09 2.71639e-08
5.92468e-07 -5.48823e-09 2.02816e-08
-2.4408e-07 1.87821e-05 -1.19299e-06
-1.81817e-07 1.69917e-05 -1.10362e-06
6.0572e-07 -6.14407e-09 2.83308e-08
6.10562e-07 -5.67795e-09 2.11118e-08
-2.44235e-07 1.87732e-05 -1.19223e-06
-1.79597e-07 1.69832e-05 -1.09937e-06
6.1677e-07 -6.26176e-09 2.91486e-08
6.21528e-07 -5.78602e-09 2.16982e-08
-4.57281e-07 2.01483e-05 -1.17957e-06
-4.69511e-07 2.01379e-05 -1.17667e-06
-4.5433e-07 2.01708e-05 -1.20397e-06
-3.48728e-07 1.99657e-05 -1.25409e-06
-4.65383e-07 2.01593e-05 -1.19913e-06
6.17243e-07 -7.11803e-09 2.77196e-08
6.24661e-07 -6.76047e-09 3.59677e-08
-3.4167e-07 1.99548e-05 -1.23875e-06
6.30031e-07 -7.29664e-09 2.82315e-08
6.4554e-07 -7.50551e-09 2.89678e-08
6.50609e-07 -7.58361e-09 2.90917e-08
6.37891e-07 -6.91357e-09 3.68197e-08
-3.25785e-07 1.99439e-05 -1.2208e-06
6.53413e-07 -7.10778e-09 3.65207e-08
-3.38837e-07 1.99334e-05 -1.23171e-06
6.58575e-07 -7.15121e-09 3.60244e-08
-2.50217e-07 1.8763e-05 -1.19218e-06
-1.80969e-07 1.69736e-05 -1.10023e-06
6.27114e-07 -6.37912e-09 2.96277e-08
6.3167e-07 -5.89138e-09 2.24251e-08
-2.48893e-07 1.87532e-05 -1.19713e-06
-1.72095e-07 1.6964e-05 -1.09303e-06
6.45188e-07 -6.01559e-09 2.28078e-08
6.40083e-07 -6.5125e-09 3.01965e-08
-2.44419e-07 1.87434e-05 -1.20222e-06
-1.63314e-07 1.69545e-05 -1.08442e-06
6.5864e-07 -6.15587e-09 2.3045e-08
6.54227e-07 -6.67804e-09 3.02726e-08
-2.60202e-07 1.87334e-05 -1.20135e-06
-1.74819e-07 1.69455e-05 -1.09029e-06
6.63282e-07 -6.21914e-09 2.26172e-08
6.59016e-07 -6.74296e-09 2.9896e-08
-1.07465e-07 1.50256e-05 -9.90717e-07
-8.25144e-08 1.31261e-05 -8.85331e-07
5.88222e-07 -4.19971e-09 6.05931e-09
5.84961e-07 -4.84685e-09 1.00149e-08
-1.07779e-07 1.50184e-05 -9.84112e-07
-7.8546e-08 1.31193e-05 -8.79115e-07
6.02777e-07 -4.36431e-09 5.78623e-09
5.98885e-07 -5.02881e-09 9.69988e-09
-1.13614e-07 1.50104e-05 -9.81564e-07
-7.83174e-08 1.31125e-05 -8.74493e-07
6.16401e-07 -5.22468e-09 9.88763e-09
6.20547e-07 -4.54664e-09 5.73268e-09
-1.16001e-07 1.50025e-05 -9.85196e-07
-7.61581e-08 1.3106e-05 -8.73809e-07
6.27567e-07 -5.35943e-09 1.01781e-08
6.32795e-07 -4.69045e-09 5.49487e-09
-4.06555e-08 9.98015e-06 -6.81499e-07
-4.8775e-08 1.14396e-05 -7.7621e-07
6.05145e-07 -3.18557e-09 8.62886e-09
5.96592e-07 -3.69487e-09 6.33455e-09
-4.193e-08 9.97476e-06 -6.80603e-07
-4.92669e-08 1.14335e-05 -7.78595e-07
6.20113e-07 -3.30216e-09 8.98015e-09
6.11257e-07 -3.83009e-09 6.33774e-09
-4.54485e-08 9.96928e-06 -6.79163e-07
-5.30218e-08 1.14272e-05 -7.77376e-07
6.37501e-07 -3.42468e-09 9.60919e-09
6.28696e-07 -3.9751e-09 6.59182e-09
-4.56421e-08 9.96372e-06 -6.8177e-07
-5.47352e-08 1.14209e-05 -7.82676e-07
6.502e-07 -3.5239e-09 9.97698e-09
6.40963e-07 -4.08758e-09 6.66495e-09
-1.24672e-07 1.49939e-05 -1.00023e-06
-1.24214e-07 1.49855e-05 -1.00998e-06
-1.20746e-07 1.4977e-05 -1.00714e-06
-1.30389e-07 1.49689e-05 -1.01203e-06
-8.02798e-08 1.30987e-05 -8.79063e-07
6.37414e-07 -5.46511e-09 1.05642e-08
6.43094e-07 -4.78666e-09 5.76996e-09
-7.80977e-08 1.30914e-05 -8.82846e-07
6.51457e-07 -5.59112e-09 1.11461e-08
6.58452e-07 -4.91427e-09 6.09812e-09
-7.59328e-08 1.3084e-05 -8.87811e-07
6.63901e-07 -5.71169e-09 1.14808e-08
6.70463e-07 -5.01778e-09 6.2833e-09
-8.20205e-08 1.30766e-05 -8.88669e-07
6.68804e-07 -5.7739e-09 1.15231e-08
6.75704e-07 -5.09051e-09 6.40437e-09
-4.83682e-08 9.95796e-06 -6.82605e-07
-5.83044e-08 1.14144e-05 -7.84001e-07
6.60338e-07 -3.5929e-09 1.01142e-08
6.51118e-07 -4.16754e-09 6.88006e-09
-4.67503e-08 9.95215e-06 -6.77853e-07
-5.57688e-08 1.14079e-05 -7.78726e-07
6.77118e-07 -3.68917e-09 1.04562e-08
6.67146e-07 -4.27634e-09 7.20405e-09
-4.73098e-08 9.94608e-06 -6.80529e-07
-5.64581e-08 1.14011e-05 -7.81219e-07
6.87537e-07 -3.75431e-09 1.06563e-08
6.78209e-07 -4.36232e-09 7.12695e-09
-5.18521e-08 9.94031e-06 -6.79148e-07
-6.32015e-08 1.13944e-05 -7.82525e-07
6.93511e-07 -3.80177e-09 1.10297e-08
6.83959e-07 -4.41491e-09 7.51393e-09
-5.28493e-08 9.93426e-06 -6.78204e-07
5.22224e-07 -1.77684e-09 4.26378e-09
5.18329e-07 -2.15533e-09 4.37918e-09
-1.37204e-08 7.5776e-06 -5.13158e-07
-2.61451e-08 8.73973e-06 -5.84768e-07
5.28654e-07 -2.1974e-09 4.74433e-09
5.32414e-07 -1.80892e-09 4.87486e-09
-1.16478e-08 7.5739e-06 -5.15319e-07
-2.476e-08 8.73541e-06 -5.8921e-07
5.36969e-07 -2.24875e-09 4.87838e-09
5.40792e-07 -1.84443e-09 5.19866e-09
-9.56203e-09 7.57025e-06 -5.14828e-07
-2.30622e-08 8.73117e-06 -5.87798e-07
5.47691e-07 -1.87821e-09 5.43565e-09
5.43775e-07 -2.2905e-09 5.20048e-09
-2.19358e-08 8.72686e-06 -5.89211e-07
-6.49041e-09 7.5665e-06 -5.12188e-07
5.27321e-07 -1.44775e-09 3.52043e-09
5.32427e-07 -1.24858e-09 3.59804e-09
-9.38373e-09 5.39699e-06 -3.67239e-07
-9.11872e-09 6.4759e-06 -4.46538e-07
5.42816e-07 -1.2649e-09 4.02694e-09
5.37467e-07 -1.46407e-09 4.11137e-09
-8.45427e-09 5.39414e-06 -3.70986e-07
-7.75186e-09 6.47261e-06 -4.49589e-07
5.45847e-07 -1.47896e-09 4.54387e-09
5.51096e-07 -1.28212e-09 4.49554e-09
-6.29087e-09 6.46931e-06 -4.51408e-07
-7.29885e-09 5.39138e-06 -3.722e-07
5.52636e-07 -1.48877e-09 4.95759e-09
5.57877e-07 -1.29338e-09 4.88175e-09
-3.82944e-09 6.46602e-06 -4.51517e-07
-5.75357e-09 5.38868e-06 -3.71943e-07
5.59037e-07 -1.92544e-09 5.60035e-09
5.54929e-07 -2.35743e-09 5.14231e-09
-2.62202e-08 8.72215e-06 -5.95398e-07
-6.71867e-09 7.5625e-06 -5.15739e-07
5.66505e-07 -1.95494e-09 5.87444e-09
5.62327e-07 -2.3978e-09 5.3179e-09
-2.71859e-08 8.71741e-06 -5.99171e-07
-5.61557e-09 7.5584e-06 -5.1779e-07
-2.51902e-08 8.71284e-06 -6.02078e-07
5.76913e-07 -1.99726e-09 6.13687e-09
5.72787e-07 -2.45935e-09 5.40814e-09
-3.60824e-09 7.55426e-06 -5.20962e-07
5.85478e-07 -2.03437e-09 6.34375e-09
5.8154e-07 -2.51437e-09 5.53362e-09
-2.56454e-08 8.708e-06 -6.0655e-07
-2.83383e-09 7.55023e-06 -5.24509e-07
5.93363e-07 -2.07299e-09 6.43931e-09
5.89381e-07 -2.57132e-09 5.59884e-09
5.64128e-07 -1.5172e-09 5.31778e-09
5.69574e-07 -1.31874e-09 5.31797e-09
-3.5682e-09 6.46274e-06 -4.50202e-07
-5.56988e-09 5.38595e-06 -3.71055e-07
5.71654e-07 -1.53524e-09 5.66411e-09
5.77159e-07 -1.33293e-09 5.60249e-09
-2.58895e-09 6.45938e-06 -4.48399e-07
-4.79116e-09 5.38311e-06 -3.70389e-07
5.8195e-07 -1.56707e-09 5.91726e-09
5.87421e-07 -1.35838e-09 5.77076e-09
-1.93694e-09 6.45598e-06 -4.47192e-07
-4.1257e-09 5.3802e-06 -3.69603e-07
5.90383e-07 -1.5947e-09 6.19395e-09
5.95759e-07 -1.38072e-09 6.00297e-09
-2.06421e-09 6.4526e-06 -4.47508e-07
-4.26109e-09 5.37728e-06 -3.71092e-07
5.98365e-07 -1.62224e-09 6.52198e-09
6.03857e-07 -1.40359e-09 6.2463e-09
5.35557e-07 -9.71306e-10 2.45612e-09
5.38905e-07 -5.38543e-10 6.19714e-09
-6.75977e-09 4.32147e-06 -2.9659e-07
-2.64253e-09 3.24339e-06 -2.22225e-07
5.4964e-07 -5.53008e-10 6.30688e-09
5.46074e-07 -9.88269e-10 2.72794e-09
-2.10118e-09 3.24172e-06 -2.23686e-07
-6.01126e-09 4.31913e-06 -2.99248e-07
5.58485e-07 -5.64678e-10 6.48033e-09
5.54847e-07 -9.98222e-10 2.99207e-09
-5.06968e-09 4.31686e-06 -2.99854e-07
-1.23148e-09 3.23995e-06 -2.24215e-07
5.65566e-07 -5.75238e-10 6.55493e-09
5.61921e-07 -1.00418e-09 3.24049e-09
-3.92385e-09 4.31466e-06 -2.99487e-07
-5.3812e-10 3.23827e-06 -2.24119e-07
5.40393e-07 -4.14196e-10 3.22387e-09
5.40919e-07 -3.21977e-10 -1.19394e-09
-2.3874e-09 2.16265e-06 -1.48832e-07
-2.34498e-10 1.08121e-06 -7.43552e-08
5.50987e-07 -4.18497e-10 3.46211e-09
5.51511e-07 -3.33386e-10 -1.27309e-09
-2.12398e-09 2.16153e-06 -1.49859e-07
-1.72528e-10 1.08067e-06 -7.47182e-08
5.59868e-07 -4.14658e-10 3.83121e-09
5.60389e-07 -3.36726e-10 -1.16734e-09
-1.82192e-09 2.16038e-06 -1.50211e-07
-1.07961e-10 1.0801e-06 -7.48073e-08
-1.86115e-09 2.15927e-06 -1.49962e-07
-2.51191e-10 1.07955e-06 -7.46967e-08
5.66949e-07 -4.10719e-10 4.11167e-09
5.67448e-07 -3.39845e-10 -1.15105e-09
5.73898e-07 -1.02487e-09 3.43468e-09
5.77477e-07 -5.94851e-10 6.68082e-09
-4.17543e-09 4.3124e-06 -2.99655e-07
-5.92541e-10 3.23654e-06 -2.24194e-07
5.81779e-07 -1.04344e-09 3.53514e-09
5.85439e-07 -6.14229e-10 6.69736e-09
-3.96223e-09 4.31009e-06 -2.99659e-07
-3.368e-10 3.23477e-06 -2.2435e-07
5.92222e-07 -1.06694e-09 3.56542e-09
5.95905e-07 -6.305e-10 6.70803e-09
-3.73584e-09 4.30772e-06 -3.00026e-07
-2.53976e-10 3.23296e-06 -2.24635e-07
6.00667e-07 -1.08741e-09 3.66323e-09
6.04324e-07 -6.46008e-10 6.76796e-09
-4.43518e-09 4.30535e-06 -3.01854e-07
-4.44739e-10 3.23117e-06 -2.25723e-07
6.09026e-07 -1.10575e-09 3.79708e-09
6.12796e-07 -6.60983e-10 6.86538e-09
5.79601e-07 -3.455e-10 -1.08052e-09
5.7913e-07 -4.12633e-10 4.45703e-09
-1.42904e-09 2.15808e-06 -1.49924e-07
-1.07302e-10 1.07895e-06 -7.47056e-08
5.8713e-07 -4.12446e-10 4.76535e-09
5.87617e-07 -3.47174e-10 -9.28117e-10
-1.21116e-09 2.15689e-06 -1.49826e-07
-7.7379e-11 1.07836e-06 -7.46461e-08
5.97616e-07 -4.17736e-10 4.93798e-09
5.9807e-07 -3.4992e-10 -9.05131e-10
-1.17561e-09 2.15569e-06 -1.49879e-07
-7.2415e-11 1.07775e-06 -7.4651e-08
6.0602e-07 -4.21174e-10 5.16775e-09
6.06424e-07 -3.51844e-10 -8.14344e-10
-1.25487e-09 2.15451e-06 -1.49934e-07
-1.51005e-10 1.07716e-06 -7.46843e-08
6.14577e-07 -4.25167e-10 5.41869e-09
6.14769e-07 -3.59942e-10 -7.61735e-10
3.56355e-14 -2.14569e-11 1.48155e-12
4.46148e-16 -2.59178e-11 1.79147e-12
-2.52236e-08 8.70334e-06 -6.10735e-07
-1.48181e-09 7.54609e-06 -5.27705e-07
6.17147e-07 -2.15799e-09 7.01259e-09
6.1311e-07 -2.67475e-09 6.11273e-09
-2.85386e-08 8.69868e-06 -6.09461e-07
-1.27997e-09 7.542e-06 -5.2482e-07
6.32444e-07 -2.22135e-09 7.36177e-09
6.28423e-07 -2.76726e-09 6.20572e-09
-3.07845e-08 8.69383e-06 -6.09396e-07
-2.58403e-09 7.53765e-06 -5.25287e-07
6.4941e-07 -2.30601e-09 7.57091e-09
6.45721e-07 -2.87634e-09 6.5315e-09
-3.18863e-08 8.6889e-06 -6.11604e-07
-3.04745e-09 7.53333e-06 -5.26567e-07
6.58719e-07 -2.94754e-09 7.12958e-09
6.63013e-07 -2.3772e-09 7.59168e-09
-2.37953e-09 6.44901e-06 -4.48137e-07
-4.18784e-09 5.3742e-06 -3.72768e-07
6.27643e-07 -1.47181e-09 6.3862e-09
6.21815e-07 -1.70268e-09 6.92349e-09
-2.84129e-09 6.44525e-06 -4.472e-07
-4.26101e-09 5.37103e-06 -3.7208e-07
6.42615e-07 -1.51545e-09 6.5083e-09
6.36872e-07 -1.75767e-09 7.10727e-09
-3.6703e-09 6.44143e-06 -4.50203e-07
-4.69515e-09 5.36785e-06 -3.73766e-07
6.53893e-07 -1.83859e-09 6.97502e-09
6.59224e-07 -1.57457e-09 6.59241e-09
-4.43125e-09 6.43764e-06 -4.5252e-07
-4.89647e-09 5.36471e-06 -3.75304e-07
6.67658e-07 -1.90371e-09 6.87843e-09
6.7313e-07 -1.61827e-09 6.56276e-09
-3.58648e-08 8.68396e-06 -6.11091e-07
-5.25679e-09 7.52899e-06 -5.25726e-07
6.68814e-07 -2.98393e-09 8.06654e-09
6.73462e-07 -2.41874e-09 7.85933e-09