# vtk DataFile Version 3.0
vtk output
ASCII
DATASET POLYDATA
POINTS 11413 float
0.18777 0.569708 -0.032903
0.198021 0.574636 -0.032744
0.187833 0.559726 -0.0323157
0.198077 0.564657 -0.0321329
0.208305 0.569596 -0.0320326
0.218519 0.574525 -0.0320332
0.187901 0.549743 -0.0316987
0.238939 0.574444 -0.0317384
0.259152 0.574447 -0.0318134
0.279273 0.574376 -0.0315744
0.319515 0.574255 -0.0318418
0.339556 0.574221 -0.0316871
0.359552 0.574191 -0.0316299
0.379913 0.574134 -0.0318262
0.399908 0.574121 -0.0316667
0.419902 0.574108 -0.0315906
0.43995 0.574038 -0.0317022
0.459953 0.574043 -0.0316236
0.479959 0.57405 -0.031638
0.81223 0.569708 -0.032903
0.801979 0.574636 -0.032744
0.812167 0.559726 -0.0323157
0.801923 0.564657 -0.0321329
0.791695 0.569596 -0.0320326
0.781481 0.574525 -0.0320333
0.500032 0.574057 -0.0317438
0.520042 0.574049 -0.0316323
0.540047 0.574042 -0.0316175
0.560049 0.574037 -0.0316944
0.580097 0.574107 -0.0315859
0.600091 0.57412 -0.0316616
0.620085 0.574134 -0.0318201
0.640448 0.574191 -0.03163
0.660444 0.574221 -0.0316871
0.680485 0.574255 -0.0318418
0.720727 0.574376 -0.0315746
0.740848 0.574447 -0.0318135
0.761061 0.574444 -0.0317384
0.812099 0.549743 -0.0316987
0.146662 0.639721 -0.0345687
0.136366 0.644784 -0.034299
0.146753 0.629773 -0.0339564
0.136468 0.634833 -0.0337045
0.126207 0.639894 -0.033232
0.146886 0.619821 -0.0332796
0.136588 0.624871 -0.0330795
0.126316 0.629943 -0.0326609
0.146997 0.609852 -0.0326257
0.136712 0.6149 -0.03243
0.126455 0.619971 -0.0320191
0.147105 0.599878 -0.0319878
0.136832 0.604928 -0.0317957
0.187702 0.579685 -0.0335117
0.20825 0.579571 -0.0326533
0.197952 0.584609 -0.0333702
0.218471 0.584498 -0.0326685
0.18761 0.589668 -0.0341496
0.208192 0.589544 -0.0333032
0.156854 0.644618 -0.0353226
0.156947 0.634677 -0.0346883
0.157046 0.62472 -0.034038
0.157148 0.614758 -0.0333711
0.157252 0.604792 -0.0327162
0.197876 0.594588 -0.0340075
0.218423 0.594475 -0.0333093
0.187518 0.599639 -0.0347987
0.208134 0.599521 -0.033965
0.197804 0.604558 -0.034665
0.218384 0.604443 -0.0339767
0.167157 0.639572 -0.0352979
0.167227 0.629625 -0.0346687
0.167324 0.619672 -0.0339853
0.187424 0.609608 -0.0354689
0.208076 0.609487 -0.0346376
0.197723 0.614517 -0.035353
0.218329 0.614398 -0.0346557
0.18732 0.619567 -0.0361564
0.208003 0.619439 -0.0353199
0.197639 0.62447 -0.0360467
0.218275 0.624345 -0.035354
0.177391 0.64448 -0.0357785
0.177455 0.634533 -0.0351399
0.187217 0.629522 -0.0368664
0.207936 0.629387 -0.0360253
0.197561 0.63443 -0.0367433
0.218225 0.634302 -0.036046
0.187135 0.639478 -0.0375201
0.207886 0.639338 -0.0366843
0.197495 0.644387 -0.0374063
0.218185 0.644255 -0.0367083
0.177554 0.624579 -0.0344352
0.177652 0.614625 -0.0337766
0.177741 0.604664 -0.0331472
0.167448 0.60972 -0.0332775
0.167529 0.599744 -0.0326954
0.177829 0.594695 -0.0325337
0.177895 0.584718 -0.0319633
0.167634 0.589773 -0.0321113
0.157365 0.594819 -0.0320557
0.167717 0.579788 -0.0315442
0.146567 0.64968 -0.0351887
0.126089 0.649853 -0.0338109
0.136267 0.654751 -0.0348863
0.146477 0.659653 -0.0357925
0.125988 0.659826 -0.0343643
0.136168 0.66473 -0.0354813
0.146392 0.66963 -0.0364117
0.12589 0.669806 -0.0349391
0.136076 0.674712 -0.0360907
0.146308 0.679614 -0.0370483
0.125789 0.679793 -0.0355371
0.135963 0.684687 -0.0367412
0.115867 0.714715 -0.0351869
0.115962 0.704735 -0.0345262
0.14622 0.689614 -0.0377007
0.125683 0.689795 -0.0361582
0.135865 0.694691 -0.0373856
0.146114 0.699604 -0.0383949
0.125591 0.699801 -0.0367424
0.135776 0.704704 -0.0380112
0.146029 0.709627 -0.0390492
0.125457 0.709794 -0.0374296
0.135644 0.71471 -0.0387405
0.116079 0.694753 -0.0338451
0.105905 0.709846 -0.0330668
0.116192 0.684769 -0.0331861
0.106031 0.699847 -0.0324309
0.116296 0.674793 -0.0325426
0.106159 0.689861 -0.0317906
0.116415 0.664824 -0.0318914
0.167082 0.649529 -0.0359391
0.18705 0.649443 -0.0381851
0.207833 0.6493 -0.0373505
0.156773 0.654583 -0.0359568
0.177326 0.654443 -0.0364291
0.197429 0.654358 -0.0380758
0.218145 0.654224 -0.0373745
0.186972 0.659417 -0.0388575
0.207787 0.659271 -0.0380213
0.156692 0.664561 -0.0365954
0.156618 0.674542 -0.03724
0.156544 0.684531 -0.0378986
0.15647 0.694539 -0.0385713
0.156376 0.704539 -0.0392849
0.156299 0.714569 -0.0399634
0.167014 0.659501 -0.0365893
0.177267 0.66442 -0.0370978
0.19737 0.664341 -0.0387566
0.218111 0.664205 -0.03805
0.166949 0.669479 -0.0372526
0.186904 0.669418 -0.0394861
0.207745 0.669258 -0.0387041
0.166884 0.679464 -0.0379161
0.166806 0.689448 -0.0386059
0.166745 0.699465 -0.0392911
0.166683 0.709483 -0.0399895
0.177214 0.674401 -0.0377769
0.19732 0.674331 -0.0394408
0.218086 0.674189 -0.0387327
0.186835 0.679396 -0.040198
0.207713 0.679251 -0.0393899
0.17716 0.684394 -0.0384694
0.197269 0.684327 -0.0401454
0.218064 0.68419 -0.03942
0.186758 0.689387 -0.0409744
0.207677 0.689255 -0.0400958
0.177092 0.694395 -0.0391761
0.177043 0.704412 -0.0398677
0.17699 0.714434 -0.0405752
0.197213 0.694328 -0.040893
0.218038 0.694206 -0.0401356
0.186681 0.699388 -0.0417453
0.207635 0.699259 -0.0408544
0.197158 0.704338 -0.0416448
0.218011 0.704218 -0.0408747
0.186607 0.709414 -0.0424876
0.207596 0.709287 -0.0415868
0.197101 0.714368 -0.0423884
0.217982 0.714248 -0.0416064
0.0756917 0.855052 -0.033337
0.0756827 0.844982 -0.0328537
0.0756741 0.834937 -0.0323627
0.0756726 0.824891 -0.0319162
0.0757016 0.814889 -0.0314232
0.105778 0.719818 -0.0337111
0.14592 0.719643 -0.0397519
0.125302 0.719793 -0.0381457
0.0854974 0.779875 -0.0326176
0.0855837 0.769906 -0.0320525
0.115754 0.724671 -0.035813
0.13551 0.72471 -0.039429
0.105657 0.729759 -0.0343363
0.145779 0.729634 -0.0404755
0.125132 0.729778 -0.0388799
0.0957068 0.734851 -0.032482
0.115641 0.734626 -0.0364946
0.135361 0.734709 -0.0401727
0.0955555 0.744841 -0.0330984
0.0953958 0.754805 -0.033746
0.0953029 0.764775 -0.0343271
0.0952165 0.774748 -0.0349176
0.0951302 0.784725 -0.035512
0.105534 0.739691 -0.0349843
0.145664 0.739633 -0.0412028
0.124992 0.739774 -0.0395973
0.115505 0.744565 -0.0371948
0.135202 0.744694 -0.0409432
0.105401 0.749649 -0.0356624
0.105274 0.759629 -0.0362873
0.105182 0.76963 -0.0368675
0.105098 0.779639 -0.0374541
0.145525 0.749632 -0.0419826
0.124818 0.749755 -0.0403715
0.115378 0.754524 -0.0378408
0.115284 0.764546 -0.0384296
0.115188 0.774572 -0.0390313
0.115101 0.784612 -0.0396275
0.135042 0.754682 -0.0417036
0.14543 0.759599 -0.042691
0.12468 0.759714 -0.0410565
0.134961 0.764632 -0.0423632
0.145357 0.769562 -0.0433411
0.124589 0.769667 -0.0416841
0.134877 0.774594 -0.0430407
0.145286 0.77954 -0.044025
0.124457 0.779625 -0.0424069
0.134796 0.784572 -0.0437179
0.0958664 0.724899 -0.0318401
0.085698 0.759957 -0.0314779
0.166607 0.719508 -0.0406772
0.207545 0.719314 -0.0423242
0.186505 0.719433 -0.04323
0.15619 0.724566 -0.0406762
0.176912 0.724447 -0.0412675
0.217925 0.724272 -0.0423096
0.19701 0.724381 -0.0431205
0.156065 0.734571 -0.0414084
0.15596 0.744568 -0.0421552
0.155847 0.754562 -0.0428958
0.155788 0.764529 -0.0435582
0.155729 0.774507 -0.0442366
0.155671 0.784499 -0.0449221
0.166493 0.729498 -0.0414169
0.186408 0.729447 -0.0439899
0.207472 0.729333 -0.0430596
0.176823 0.734447 -0.0420062
0.196937 0.734405 -0.0438889
0.217875 0.734297 -0.0430693
0.166395 0.739494 -0.0421531
0.166295 0.749502 -0.0428991
0.166218 0.759479 -0.0436038
0.166168 0.769459 -0.0442752
0.166116 0.779456 -0.0449308
0.18631 0.739459 -0.0447742
0.207406 0.739345 -0.0438283
0.176736 0.744436 -0.0427652
0.196854 0.744412 -0.0446832
0.217818 0.744309 -0.043826
0.186214 0.749475 -0.0455877
0.207343 0.749359 -0.044631
0.176561 0.774405 -0.0448187
0.176516 0.784417 -0.0454868
0.176632 0.754425 -0.0435327
0.176584 0.76441 -0.044191
0.196771 0.754412 -0.0454672
0.217756 0.754306 -0.044637
0.186125 0.759451 -0.0463601
0.207287 0.759342 -0.0453646
0.196722 0.764387 -0.0461823
0.21773 0.76429 -0.0453426
0.186075 0.769435 -0.0470292
0.186029 0.779445 -0.047701
0.207253 0.76933 -0.0460753
0.19667 0.77438 -0.0469392
0.217707 0.774292 -0.0460486
0.20722 0.779343 -0.0467875
0.196631 0.784397 -0.0476405
0.217689 0.784314 -0.0467489
0.0854275 0.789829 -0.0331644
0.105024 0.789647 -0.0380333
0.145217 0.789529 -0.0446897
0.124366 0.789599 -0.0430593
0.0852132 0.829747 -0.0352778
0.0851953 0.839818 -0.0357071
0.0851862 0.84992 -0.0361632
0.0852307 0.819712 -0.034835
0.0853238 0.809742 -0.0342704
0.0853739 0.799776 -0.0337046
0.0950711 0.794688 -0.036041
0.11504 0.794637 -0.0401803
0.13473 0.794548 -0.0442943
0.0950277 0.804665 -0.0366015
0.0949826 0.814699 -0.0371825
0.0949667 0.824777 -0.0376966
0.0949593 0.834858 -0.0381755
0.0949502 0.844927 -0.0387122
0.0949428 0.855004 -0.0392641
0.104971 0.799642 -0.0385615
0.145164 0.799517 -0.0452937
0.124255 0.799557 -0.0436941
0.114994 0.804628 -0.0407509
0.134669 0.804542 -0.0449293
0.104939 0.809669 -0.0391071
0.104903 0.819701 -0.0397124
0.10489 0.829761 -0.0402572
0.104874 0.839838 -0.0407997
0.104847 0.84993 -0.0413552
0.145118 0.809528 -0.0459383
0.124194 0.809552 -0.0443163
0.114956 0.814629 -0.0413205
0.114934 0.824685 -0.0419398
0.114924 0.834769 -0.0425018
0.11488 0.844866 -0.0430718
0.114878 0.854958 -0.0436465
0.134623 0.814558 -0.045543
0.145084 0.819564 -0.0465708
0.124147 0.819575 -0.0449244
0.134619 0.824584 -0.0460829
0.145111 0.829619 -0.0470663
0.124171 0.829587 -0.0453912
0.13463 0.834637 -0.0466464
0.145121 0.839723 -0.0476205
0.124205 0.839658 -0.045894
0.134637 0.844741 -0.0471951
0.145135 0.849886 -0.0482151
0.124212 0.849791 -0.0464562
0.134653 0.854918 -0.0477739
0.166069 0.789449 -0.0456121
0.18598 0.789462 -0.0483863
0.207194 0.789369 -0.0474716
0.155618 0.794462 -0.0455717
0.176485 0.794397 -0.0461504
0.196599 0.794411 -0.0482931
0.217677 0.794339 -0.0473827
0.155574 0.804479 -0.0462086
0.155543 0.814513 -0.0468266
0.155546 0.824573 -0.0473864
0.155571 0.834658 -0.0479566
0.155588 0.844796 -0.048528
0.155612 0.855001 -0.0491409
0.166029 0.799412 -0.0462856
0.185958 0.799473 -0.048979
0.207178 0.799395 -0.0480998
0.17645 0.804391 -0.0468426
[...]
POINT_DATA 11413
VECTORS alpha float
2.80395e-06 -1.62031e-08 1.48931e-07
-6.26849e-08 1.76731e-05 -1.18917e-06
2.74554e-06 -1.56811e-08 1.51886e-07
-6.45474e-08 1.77376e-05 -1.19493e-06
2.92585e-06 -1.5814e-08 1.06111e-07
-2.27096e-08 1.65846e-05 -1.12548e-06
2.66996e-06 -1.50642e-08 1.51335e-07
5.72595e-09 1.49515e-05 -1.0151e-06
-3.38228e-09 1.31498e-05 -9.18368e-07
4.09309e-09 1.14336e-05 -8.04167e-07
9.07359e-09 8.61531e-06 -6.14099e-07
9.01327e-09 7.48978e-06 -5.35596e-07
8.75587e-09 6.47788e-06 -4.65068e-07
5.65378e-09 5.52886e-06 -3.8936e-07
3.3501e-09 4.60186e-06 -3.2561e-07
1.60866e-09 3.68129e-06 -2.62011e-07
2.40307e-09 2.76275e-06 -2.00392e-07
1.06783e-09 1.8412e-06 -1.33316e-07
2.64923e-10 9.20202e-07 -6.66024e-08
2.80416e-06 1.62029e-08 -1.48942e-07
-6.26849e-08 -1.76731e-05 1.18917e-06
2.74547e-06 1.56793e-08 -1.51881e-07
-6.45476e-08 -1.77377e-05 1.19493e-06
2.92623e-06 1.58139e-08 -1.06124e-07
-2.27097e-08 -1.65846e-05 1.12548e-06
-2.96648e-16 -2.33258e-12 1.68996e-13
2.59704e-10 -9.20188e-07 6.65117e-08
1.08175e-09 -1.84117e-06 1.33124e-07
2.46115e-09 -2.76271e-06 2.00077e-07
1.66422e-09 -3.68123e-06 2.61617e-07
3.48983e-09 -4.60178e-06 3.25075e-07
5.90779e-09 -5.52876e-06 3.88651e-07
8.75953e-09 -6.47789e-06 4.6505e-07
9.01727e-09 -7.4898e-06 5.3558e-07
9.07735e-09 -8.61532e-06 6.14092e-07
4.09563e-09 -1.14336e-05 8.04169e-07
-3.37747e-09 -1.31498e-05 9.18358e-07
5.7267e-09 -1.49515e-05 1.01509e-06
2.66991e-06 1.50632e-08 -1.51332e-07
3.05676e-06 -1.91466e-08 -1.289e-07
-1.22326e-07 1.46685e-05 -1.02919e-06
2.98042e-06 -1.8741e-08 -1.22224e-07
-1.1926e-07 1.4738e-05 -1.02331e-06
2.8809e-06 -1.70975e-08 -2.38753e-07
2.90264e-06 -1.7616e-08 -1.16769e-07
-1.15501e-07 1.48089e-05 -1.01208e-06
2.80869e-06 -1.68373e-08 -2.27928e-07
2.75035e-06 -1.61652e-08 -1.0813e-07
-1.13875e-07 1.48846e-05 -9.9855e-07
2.73654e-06 -1.57882e-08 -2.18311e-07
2.69118e-06 -1.54203e-08 -1.03238e-07
-1.13988e-07 1.49532e-05 -9.84359e-07
2.86942e-06 -1.67761e-08 1.49868e-07
2.99453e-06 -1.62374e-08 1.05259e-07
-5.3775e-08 1.76039e-05 -1.19147e-06
-1.47593e-08 1.6519e-05 -1.12813e-06
2.94056e-06 -1.7477e-08 1.53424e-07
3.06794e-06 -1.68326e-08 1.08416e-07
-6.40617e-08 1.63817e-05 -1.16611e-06
-7.03562e-08 1.64584e-05 -1.15774e-06
-6.90358e-08 1.65328e-05 -1.14634e-06
-6.98205e-08 1.66123e-05 -1.13224e-06
-7.34528e-08 1.66855e-05 -1.11777e-06
-5.06462e-08 1.75338e-05 -1.20108e-06
-1.08954e-08 1.64523e-05 -1.13421e-06
3.00761e-06 -1.83748e-08 1.56595e-07
3.13688e-06 -1.76055e-08 1.14297e-07
-4.81217e-08 1.746e-05 -1.21231e-06
-4.78683e-09 1.63806e-05 -1.14258e-06
3.23624e-06 -2.06384e-08 -2.28557e-08
3.15651e-06 -2.02058e-08 -1.9772e-08
3.07489e-06 -1.89746e-08 -1.73561e-08
3.07487e-06 -1.95248e-08 1.59855e-07
3.20534e-06 -1.85663e-08 1.16911e-07
-4.82196e-08 1.73845e-05 -1.22314e-06
-6.12092e-09 1.63095e-05 -1.15137e-06
3.25311e-06 -2.16636e-08 1.68942e-07
3.3895e-06 -2.03463e-08 1.21927e-07
-4.89427e-08 1.73039e-05 -1.23454e-06
-6.26652e-09 1.62331e-05 -1.15985e-06
-2.55516e-08 1.72986e-05 -1.2423e-06
-2.77834e-08 1.73739e-05 -1.23449e-06
3.34286e-06 -2.3513e-08 1.73958e-07
3.48115e-06 -2.19665e-08 1.26091e-07
-5.10184e-08 1.72264e-05 -1.24511e-06
-7.90102e-09 1.61593e-05 -1.16942e-06
3.42982e-06 -2.43649e-08 1.76987e-07
3.56933e-06 -2.261e-08 1.2945e-07
-5.09498e-08 1.71498e-05 -1.24893e-06
-8.41553e-09 1.60858e-05 -1.17512e-06
-2.91794e-08 1.74514e-05 -1.22438e-06
-3.15015e-08 1.7535e-05 -1.1983e-06
-3.53734e-08 1.76126e-05 -1.17894e-06
2.90887e-06 -1.74663e-08 -1.77221e-08
2.84541e-06 -1.65265e-08 -1.0423e-08
-4.0684e-08 1.76872e-05 -1.16651e-06
-4.13992e-08 1.77567e-05 -1.16387e-06
2.78104e-06 -1.58547e-08 -5.95899e-09
-7.65672e-08 1.67565e-05 -1.10533e-06
2.71488e-06 -1.53382e-08 -2.40519e-09
3.13464e-06 -1.955e-08 -1.35591e-07
2.95493e-06 -1.7313e-08 -2.49864e-07
-1.19911e-07 1.45969e-05 -1.0401e-06
3.21661e-06 -1.98137e-08 -1.44371e-07
3.03293e-06 -1.74912e-08 -2.63402e-07
-1.12837e-07 1.45239e-05 -1.05069e-06
3.29958e-06 -2.01204e-08 -1.53053e-07
3.11256e-06 -1.78089e-08 -2.76729e-07
-1.13357e-07 1.445e-05 -1.06105e-06
3.39142e-06 -2.04953e-08 -1.61919e-07
3.20054e-06 -1.82133e-08 -2.90442e-07
-1.09194e-07 1.43734e-05 -1.06987e-06
-8.98306e-08 1.2638e-05 -8.32395e-07
-7.63603e-08 1.27171e-05 -8.22091e-07
3.49152e-06 -2.06338e-08 -1.70371e-07
3.29628e-06 -1.83944e-08 -3.04044e-07
-1.03474e-07 1.42976e-05 -1.06893e-06
3.60456e-06 -2.06778e-08 -1.77455e-07
3.40101e-06 -1.81662e-08 -3.20344e-07
-1.11839e-07 1.42219e-05 -1.0652e-06
3.72278e-06 -2.05629e-08 -1.8728e-07
3.51424e-06 -1.83353e-08 -3.34254e-07
-1.10638e-07 1.41361e-05 -1.06079e-06
-7.2376e-08 1.27975e-05 -8.2004e-07
3.26002e-06 -2.24713e-08 -5.67665e-07
-7.38975e-08 1.28781e-05 -8.17331e-07
3.15928e-06 -2.16506e-08 -5.44103e-07
-7.92825e-08 1.29571e-05 -8.15314e-07
3.06181e-06 -2.08561e-08 -5.22855e-07
-8.93826e-08 1.30351e-05 -8.15242e-07
3.31754e-06 -2.10498e-08 -2.57851e-08
3.51847e-06 -2.50998e-08 1.80801e-07
3.6586e-06 -2.3129e-08 1.33412e-07
-6.12205e-08 1.63073e-05 -1.18251e-06
-1.52782e-08 1.72227e-05 -1.25489e-06
-3.97444e-08 1.70729e-05 -1.25038e-06
2.45344e-09 1.60117e-05 -1.17612e-06
3.61151e-06 -2.5721e-08 1.85808e-07
3.75139e-06 -2.35399e-08 1.37685e-07
-5.23462e-08 1.62311e-05 -1.1935e-06
-5.17827e-08 1.61535e-05 -1.20251e-06
-5.31546e-08 1.60752e-05 -1.21001e-06
-4.55672e-08 1.59952e-05 -1.20522e-06
-3.95463e-08 1.59112e-05 -1.19978e-06
-5.17245e-08 1.58282e-05 -1.19413e-06
3.40264e-06 -2.12277e-08 -3.01825e-08
-3.66641e-09 1.71463e-05 -1.26351e-06
-2.53127e-08 1.69961e-05 -1.2468e-06
1.53394e-08 1.59367e-05 -1.17226e-06
3.48804e-06 -2.14679e-08 -3.45736e-08
3.70333e-06 -2.57631e-08 1.86548e-07
3.84272e-06 -2.37032e-08 1.42844e-07
3.58247e-06 -2.18182e-08 -3.90777e-08
3.68661e-06 -2.19824e-08 -4.13228e-08
3.80223e-06 -2.19163e-08 -4.35845e-08
3.92725e-06 -2.21769e-08 -4.60695e-08
-2.64154e-09 1.70688e-05 -1.27344e-06
-1.9062e-08 1.69202e-05 -1.24543e-06
1.99106e-08 1.58621e-05 -1.17265e-06
3.80531e-06 -2.59202e-08 1.92667e-07
3.94293e-06 -2.38623e-08 1.48626e-07
-5.91013e-09 1.69907e-05 -1.28076e-06
-1.61013e-08 1.68448e-05 -1.24495e-06
2.10654e-08 1.57883e-05 -1.17153e-06
3.91677e-06 -2.62421e-08 2.04788e-07
4.05095e-06 -2.36397e-08 1.5518e-07
1.5367e-08 1.69075e-05 -1.26749e-06
1.55943e-08 1.68242e-05 -1.26199e-06
1.15009e-08 1.67374e-05 -1.26301e-06
-9.50178e-09 1.67681e-05 -1.24143e-06
2.52051e-08 1.57148e-05 -1.1649e-06
4.04093e-06 -2.61713e-08 2.12677e-07
4.17303e-06 -2.33277e-08 1.62747e-07
-1.09258e-08 1.66901e-05 -1.24262e-06
2.16564e-08 1.56395e-05 -1.16765e-06
4.1762e-06 -2.65331e-08 2.21472e-07
4.30709e-06 -2.35414e-08 1.7077e-07
-1.34652e-08 1.661e-05 -1.24106e-06
1.68424e-08 1.55627e-05 -1.16855e-06
5.90927e-09 1.77258e-05 -9.28904e-07
-3.83016e-09 1.77705e-05 -9.51182e-07
-1.23622e-08 1.78444e-05 -9.71071e-07
-2.9423e-08 1.79295e-05 -1.00218e-06
-4.83579e-08 1.80365e-05 -1.04307e-06
3.37448e-06 -2.21991e-08 -5.96835e-07
3.8627e-06 -2.11156e-08 -1.96648e-07
3.64539e-06 -1.8781e-08 -3.48784e-07
3.81226e-06 -1.98591e-08 -1.0508e-06
3.71019e-06 -2.20048e-08 -1.00759e-06
-8.4176e-08 1.25505e-05 -8.41907e-07
-9.77081e-08 1.40443e-05 -1.06462e-06
3.49122e-06 -2.10946e-08 -6.30121e-07
4.01329e-06 -2.12591e-08 -2.04769e-07
3.78323e-06 -1.90495e-08 -3.63034e-07
-6.83473e-08 1.31879e-05 -8.20021e-07
-8.48851e-08 1.24602e-05 -8.46347e-07
-8.66026e-08 1.39446e-05 -1.06467e-06
-5.5308e-08 1.30782e-05 -8.37106e-07
-4.88603e-08 1.2959e-05 -8.42864e-07
-4.34501e-08 1.28377e-05 -8.35427e-07
-3.97849e-08 1.27123e-05 -8.27927e-07
-3.94858e-08 1.25848e-05 -8.15647e-07
3.62247e-06 -2.03637e-08 -6.68024e-07
4.18503e-06 -2.22259e-08 -2.16558e-07
3.93758e-06 -1.98735e-08 -3.82738e-07
-7.7406e-08 1.23636e-05 -8.40298e-07
-6.79521e-08 1.38364e-05 -1.06168e-06
3.80424e-06 -2.09327e-08 -7.14803e-07
3.9545e-06 -1.97895e-08 -7.56506e-07
4.07557e-06 -1.78315e-08 -7.92586e-07
4.19843e-06 -1.57788e-08 -8.29532e-07
4.42954e-06 -2.43923e-08 -2.31289e-07
4.15515e-06 -2.16143e-08 -4.07967e-07
-6.43295e-08 1.22506e-05 -8.30905e-07
-5.59788e-08 1.21262e-05 -8.32022e-07
-4.80362e-08 1.19994e-05 -8.32528e-07
-3.9158e-08 1.18654e-05 -8.28242e-07
-4.66499e-08 1.37167e-05 -1.05779e-06
4.63828e-06 -2.41249e-08 -2.45844e-07
4.33922e-06 -2.07122e-08 -4.31261e-07
-4.2644e-08 1.35982e-05 -1.0476e-06
4.80657e-06 -2.08469e-08 -2.58021e-07
4.48639e-06 -1.72305e-08 -4.51129e-07
-4.47685e-08 1.34722e-05 -1.04705e-06
4.98698e-06 -1.85845e-08 -2.70106e-07
4.64254e-06 -1.48032e-08 -4.67212e-07
-4.90787e-08 1.33352e-05 -1.04752e-06
-6.57927e-08 1.32852e-05 -8.18809e-07
3.60701e-06 -2.47706e-08 -9.66457e-07
4.07449e-06 -2.23478e-08 -5.10384e-08
4.46939e-06 -2.37626e-08 1.80539e-07
4.34027e-06 -2.63713e-08 2.31859e-07
-5.15576e-08 1.57371e-05 -1.19069e-06
1.15207e-08 1.66488e-05 -1.25284e-06
2.06933e-08 1.54866e-05 -1.1645e-06
-2.18194e-09 1.65282e-05 -1.23482e-06
-3.6991e-08 1.56373e-05 -1.19609e-06
-2.59123e-08 1.55281e-05 -1.19995e-06
-1.282e-08 1.54077e-05 -1.18841e-06
-9.7379e-09 1.52872e-05 -1.18406e-06
-1.39773e-08 1.51588e-05 -1.19034e-06
-2.19631e-08 1.5018e-05 -1.19837e-06
4.23632e-06 -2.23612e-08 -5.26369e-08
4.51758e-06 -2.64516e-08 2.44403e-07
4.65111e-06 -2.29741e-08 1.9287e-07
1.78383e-08 1.6552e-05 -1.25783e-06
-3.20844e-10 1.64377e-05 -1.23575e-06
2.42114e-08 1.54007e-05 -1.17165e-06
4.42398e-06 -2.35109e-08 -5.69406e-08
4.69117e-06 -2.57149e-08 -6.42975e-08
4.9265e-06 -2.56574e-08 -6.89632e-08
5.11857e-06 -2.35339e-08 -7.12994e-08
5.32829e-06 -2.09294e-08 -7.70856e-08
4.72752e-06 -2.71698e-08 2.58599e-07
4.86799e-06 -2.35875e-08 2.06335e-07
1.25715e-08 1.64466e-05 -1.26858e-06
5.08927e-09 1.63386e-05 -1.23587e-06
2.64226e-08 1.53121e-05 -1.17333e-06
5.02911e-06 -2.93764e-08 2.77401e-07
5.18366e-06 -2.55542e-08 2.23042e-07
2.02186e-08 1.6084e-05 -1.27916e-06
1.16676e-08 1.59488e-05 -1.28456e-06
1.37879e-08 1.63307e-05 -1.2682e-06
2.06412e-08 1.62116e-05 -1.2683e-06
9.39966e-09 1.62295e-05 -1.23791e-06
3.04688e-08 1.52094e-05 -1.17899e-06
5.30048e-06 -2.95021e-08 2.93984e-07
5.47145e-06 -2.44705e-08 2.34265e-07
1.05969e-08 1.61307e-05 -1.23674e-06
3.03784e-08 1.51183e-05 -1.18009e-06
5.52203e-06 -2.78977e-08 3.0344e-07
5.77296e-06 -2.67639e-08 3.14611e-07
5.71225e-06 -2.25832e-08 2.47464e-07
9.87104e-09 1.60174e-05 -1.24494e-06
2.75295e-08 1.50179e-05 -1.18735e-06
5.99283e-06 -2.1262e-08 2.6248e-07
7.71624e-09 1.58909e-05 -1.25245e-06
2.28748e-08 1.49018e-05 -1.1976e-06
3.89432e-06 -1.75208e-08 -1.0883e-06
4.29593e-06 -1.41646e-08 -8.59973e-07
5.13391e-06 -1.62313e-08 -2.81496e-07
4.76536e-06 -1.19029e-08 -4.84139e-07
3.94811e-06 -8.11578e-09 -1.16106e-06
3.91022e-06 -4.81442e-09 -1.16136e-06
3.85576e-06 -1.82738e-09 -1.1562e-06
3.98837e-06 -1.24012e-08 -1.16059e-06
3.98335e-06 -1.4406e-08 -1.14379e-06
3.9583e-06 -1.57348e-08 -1.12147e-06
-2.6512e-08 1.24475e-05 -8.03112e-07
-2.46186e-08 1.17198e-05 -8.22213e-07
-4.26693e-08 1.31874e-05 -1.04416e-06
-1.31861e-08 1.23124e-05 -7.8218e-07
-7.18549e-09 1.21878e-05 -7.58442e-07
1.61376e-09 1.20797e-05 -7.37179e-07
1.97951e-08 1.19823e-05 -7.28592e-07
2.61391e-08 1.19072e-05 -7.10258e-07
3.35031e-08 1.18698e-05 -6.92215e-07
4.36815e-06 -1.03756e-08 -8.83725e-07
5.24318e-06 -1.29031e-08 -2.88874e-07
4.85904e-06 -8.08134e-09 -4.93146e-07
-6.24032e-09 1.15692e-05 -8.1359e-07
-3.22595e-08 1.30294e-05 -1.03783e-06
4.38773e-06 -6.55571e-09 -8.98425e-07
4.37497e-06 -4.78315e-09 -9.09338e-07
4.29774e-06 -1.91092e-09 -9.0486e-07
4.21139e-06 -6.29532e-10 -8.96238e-07
4.08925e-06 1.5302e-09 -8.79172e-07
5.2729e-06 -1.018e-08 -2.94812e-07
4.88189e-06 -4.75499e-09 -5.00957e-07
2.04639e-08 1.14196e-05 -7.83031e-07
2.7897e-08 1.12874e-05 -7.55279e-07
3.62614e-08 1.11713e-05 -7.28856e-07
5.56316e-08 1.10803e-05 -7.0801e-07
6.13409e-08 1.10281e-05 -6.87736e-07
-1.16606e-08 1.2867e-05 -1.01627e-06
5.24041e-06 -7.73461e-09 -3.0024e-07
4.85686e-06 -1.65825e-09 -5.0609e-07
7.31497e-09 1.27192e-05 -9.90498e-07
5.09733e-06 1.09809e-09 -2.98248e-07
4.7425e-06 7.11974e-09 -5.00239e-07
1.54086e-08 1.25952e-05 -9.82508e-07
4.91143e-06 6.9825e-09 -2.92772e-07
4.60188e-06 1.30943e-08 -4.91557e-07
3.05688e-08 1.25013e-05 -9.69151e-07
4.63769e-06 1.00846e-08 -2.83573e-07
4.40335e-06 1.6218e-08 -4.75368e-07
3.54254e-08 1.24451e-05 -9.59246e-07
5.50445e-06 -1.85306e-08 -8.09039e-08
5.99104e-06 -2.455e-08 3.24863e-07
6.24154e-06 -1.92257e-08 2.75408e-07
-2.10272e-08 1.4871e-05 -1.19391e-06
1.42443e-08 1.57964e-05 -1.29175e-06
1.6592e-08 1.57477e-05 -1.25541e-06
2.97166e-08 1.47675e-05 -1.20257e-06
-1.1748e-08 1.47032e-05 -1.1934e-06
9.27431e-09 1.45262e-05 -1.1728e-06
2.7081e-08 1.43587e-05 -1.14828e-06
3.38288e-08 1.42087e-05 -1.1402e-06
4.78169e-08 1.40856e-05 -1.1248e-06
4.93041e-08 1.39971e-05 -1.11244e-06
5.63936e-06 -1.35724e-08 -8.07652e-08
6.16318e-06 -1.97655e-08 3.32581e-07
6.44831e-06 -1.46355e-08 2.91192e-07
1.76918e-08 1.56339e-05 -1.28088e-06
2.486e-08 1.55888e-05 -1.24998e-06
3.35437e-08 1.46173e-05 -1.2019e-06
5.68455e-06 -1.13929e-08 -8.44379e-08
5.65387e-06 -1.0028e-08 -9.09497e-08
5.49239e-06 -1.66032e-09 -9.50486e-08
5.2672e-06 3.64525e-09 -9.77249e-08
4.92566e-06 6.11101e-09 -1.00399e-07
6.23975e-06 -1.68915e-08 3.34511e-07
6.55386e-06 -1.23503e-08 2.96661e-07
3.12844e-08 1.54554e-05 -1.25516e-06
5.00918e-08 1.52726e-05 -1.23072e-06
5.60347e-08 1.51043e-05 -1.22183e-06
7.01578e-08 1.49536e-05 -1.20559e-06
7.014e-08 1.48317e-05 -1.19137e-06
3.73988e-08 1.54095e-05 -1.23512e-06
4.01035e-08 1.44446e-05 -1.18984e-06
6.22416e-06 -1.58864e-08 3.23757e-07
6.56169e-06 -1.18492e-08 2.92687e-07
4.64129e-08 1.52406e-05 -1.21725e-06
4.3474e-08 1.42763e-05 -1.17605e-06
6.06137e-06 -1.10209e-08 3.21962e-07
5.81083e-06 -9.45784e-09 3.12919e-07
5.40786e-06 -1.02322e-08 2.87704e-07
6.40613e-06 -6.46723e-09 2.92357e-07
4.89896e-08 1.50865e-05 -1.21139e-06
4.21982e-08 1.41145e-05 -1.17293e-06
6.14316e-06 -3.88769e-09 2.84492e-07
5.3465e-08 1.49375e-05 -1.20922e-06
4.42271e-08 1.39513e-05 -1.1695e-06
5.70584e-06 -3.89989e-09 2.65527e-07
5.41545e-08 1.48014e-05 -1.20525e-06
4.26682e-08 1.37939e-05 -1.16167e-06
3.1147e-06 -1.498e-08 5.53712e-08
3.22017e-06 -1.28604e-08 2.30723e-08
3.29982e-06 -1.15622e-08 3.90368e-08
1.30094e-08 1.48937e-05 -1.0203e-06
1.71663e-09 1.30964e-05 -9.20752e-07
3.19396e-06 -1.58028e-08 5.55231e-08
3.30124e-06 -1.34395e-08 2.25082e-08
3.38182e-06 -1.18491e-08 4.0211e-08
1.99917e-08 1.48343e-05 -1.02118e-06
5.564e-09 1.30428e-05 -9.23975e-07
3.26531e-06 -1.64214e-08 5.70485e-08
3.33468e-06 -1.71936e-08 5.93089e-08
3.52488e-06 -1.88362e-08 6.44454e-08
3.6185e-06 -2.02093e-08 6.88338e-08
3.7078e-06 -2.06327e-08 7.30764e-08
3.37774e-06 -1.432e-08 2.44961e-08
2.48869e-08 1.47741e-05 -1.02495e-06
1.02523e-08 1.29865e-05 -9.28372e-07
3.45294e-06 -1.5391e-08 2.4857e-08
1.34372e-08 1.29279e-05 -9.36502e-07
3.3129e-08 1.46374e-05 -1.03667e-06
3.60664e-08 1.45673e-05 -1.04315e-06
3.93692e-08 1.44972e-05 -1.04845e-06
3.65349e-06 -1.7294e-08 2.45896e-08
1.50125e-08 1.28659e-05 -9.4578e-07
3.75588e-06 -1.89111e-08 1.8936e-08
3.83859e-06 -1.5393e-08 4.79223e-08
1.5679e-08 1.28085e-05 -9.56907e-07
3.84809e-06 -1.95122e-08 2.42676e-08
3.93598e-06 -1.57304e-08 4.96167e-08
1.8024e-08 1.2751e-05 -9.62804e-07
2.46637e-08 1.10679e-05 -8.29813e-07
4.0363e-06 -1.34417e-08 2.33003e-08
2.281e-08 1.1121e-05 -8.26331e-07
3.93675e-06 -1.34376e-08 2.15206e-08
2.1758e-08 1.11738e-05 -8.19856e-07
3.73562e-06 -1.41663e-08 4.58544e-08
3.83181e-06 -1.24681e-08 1.88499e-08
3.10192e-08 1.47085e-05 -1.03187e-06
1.96207e-08 1.12302e-05 -8.14709e-07
3.534e-06 -1.28405e-08 4.24474e-08
3.62704e-06 -1.14514e-08 1.69124e-08
1.64582e-08 1.12837e-05 -8.10228e-07
3.45889e-06 -1.22651e-08 4.1886e-08
3.55044e-06 -1.11014e-08 1.66851e-08
1.32628e-08 1.13341e-05 -8.07544e-07
3.47096e-06 -1.09095e-08 1.57596e-08
9.14378e-09 1.13838e-05 -8.06938e-07
3.38707e-06 -1.07553e-08 1.38793e-08
3.55297e-06 -5.88002e-09 2.69389e-08
3.61502e-06 -5.26306e-09 1.01533e-08
1.22965e-08 8.57641e-06 -6.1274e-07
1.12001e-08 7.45528e-06 -5.33979e-07
3.64224e-06 -5.90301e-09 2.69586e-08
1.5157e-08 8.53661e-06 -6.13574e-07
3.7282e-06 -6.03816e-09 2.65898e-08
1.75008e-08 8.49603e-06 -6.14915e-07
2.9327e-08 9.58679e-06 -7.13449e-07
2.81084e-08 9.63549e-06 -7.10725e-07
2.71087e-08 9.68368e-06 -7.06716e-07
2.51207e-08 9.73459e-06 -7.03834e-07
1.93508e-08 8.45303e-06 -6.16993e-07
4.02321e-06 -6.84238e-09 2.67585e-08
2.0504e-08 8.40814e-06 -6.19178e-07
4.13637e-06 -7.73495e-09 2.80764e-08
4.20821e-06 -6.22223e-09 8.3161e-09
4.13505e-06 -1.13636e-08 -1.1427e-08
2.0949e-08 8.36538e-06 -6.22919e-07
1.74523e-08 7.2681e-06 -5.38037e-07
4.24429e-06 -7.69907e-09 2.86013e-08
4.319e-06 -5.92146e-09 8.61084e-09
2.20057e-08 8.32174e-06 -6.24886e-07
1.79892e-08 7.22908e-06 -5.38999e-07
1.52464e-08 6.24885e-06 -4.64295e-07
1.51341e-08 6.28301e-06 -4.64021e-07
4.03346e-06 -1.16911e-08 -1.34621e-08
1.81928e-08 7.30494e-06 -5.3721e-07
1.507e-08 6.31638e-06 -4.6339e-07
3.92362e-06 -1.04114e-08 -1.22531e-08
4.0918e-06 -5.64228e-09 7.78222e-09
1.7309e-08 7.34466e-06 -5.36601e-07
1.44757e-08 6.35096e-06 -4.6405e-07
3.71421e-06 -9.14993e-09 -1.00237e-08
3.8096e-06 -6.08944e-09 2.57486e-08
3.87689e-06 -5.15186e-09 7.65523e-09
2.23321e-08 9.78304e-06 -7.01249e-07
1.37755e-08 6.38376e-06 -4.64189e-07
1.58817e-08 7.38284e-06 -5.35827e-07
3.63447e-06 -8.59684e-09 -7.02562e-09
3.79334e-06 -5.24626e-09 9.07784e-09
1.9017e-08 9.82836e-06 -7.01674e-07
1.42176e-08 7.41894e-06 -5.35251e-07
1.23482e-08 6.41591e-06 -4.642e-07
3.55147e-06 -8.02789e-09 -4.89541e-09
3.70531e-06 -5.24249e-09 9.86788e-09
1.43781e-08 9.87283e-06 -7.04798e-07
1.07745e-08 6.44667e-06 -4.64616e-07
3.46435e-06 -7.61348e-09 -3.53421e-09
3.79754e-06 -2.09937e-08 7.76149e-08
3.93775e-06 -1.98584e-08 2.83214e-08
4.03229e-06 -1.61497e-08 5.15575e-08
4.1341e-06 -1.3521e-08 2.52466e-08
4.36586e-08 1.44263e-05 -1.05004e-06
2.16204e-08 1.26908e-05 -9.64803e-07
2.70161e-08 1.10122e-05 -8.30581e-07
3.88981e-06 -2.11897e-08 8.06913e-08
4.02941e-06 -2.02258e-08 3.39631e-08
4.12956e-06 -1.65738e-08 5.50194e-08
4.23296e-06 -1.36312e-08 2.72094e-08
3.97918e-06 -2.11046e-08 8.472e-08
4.07676e-06 -2.10064e-08 8.94963e-08
4.17998e-06 -2.03497e-08 9.38122e-08
4.29841e-06 -1.96533e-08 1.0105e-07
4.42926e-06 -1.9472e-08 1.08598e-07
4.78356e-08 1.43546e-05 -1.04858e-06
2.57303e-08 1.2628e-05 -9.62886e-07
2.95639e-08 1.0954e-05 -8.28397e-07
4.11682e-06 -2.0312e-08 3.7992e-08
4.22162e-06 -1.70119e-08 5.73225e-08
4.32459e-06 -1.3733e-08 2.95332e-08
4.89982e-08 1.42832e-05 -1.05274e-06
2.84925e-08 1.25638e-05 -9.63053e-07
3.10036e-08 1.08943e-05 -8.28246e-07
5.05639e-08 1.42123e-05 -1.05433e-06
5.64654e-08 1.41425e-05 -1.04439e-06
5.35492e-08 1.40738e-05 -1.04554e-06
5.12666e-08 1.40018e-05 -1.04708e-06
4.21132e-06 -2.0485e-08 4.40815e-08
4.32041e-06 -1.75939e-08 5.86666e-08
4.42158e-06 -1.38845e-08 3.19181e-08
3.08725e-08 1.24984e-05 -9.61523e-07
3.05841e-08 1.08346e-05 -8.2481e-07
4.30985e-06 -2.00822e-08 5.06337e-08
4.42196e-06 -1.80464e-08 6.20622e-08
4.52047e-06 -1.39558e-08 3.44578e-08
4.42366e-06 -1.95365e-08 5.88004e-08
4.55002e-06 -1.93131e-08 6.85852e-08
3.24929e-08 1.2435e-05 -9.51517e-07
3.17593e-08 1.07739e-05 -8.18084e-07
4.53724e-06 -1.81429e-08 6.63485e-08
4.63199e-06 -1.37409e-08 3.87591e-08
3.38453e-08 1.23678e-05 -9.51243e-07
3.17444e-08 1.07116e-05 -8.18195e-07
4.66471e-06 -1.84624e-08 7.08573e-08
4.75496e-06 -1.37215e-08 4.31339e-08
3.51567e-08 1.23004e-05 -9.49046e-07
3.16344e-08 1.06494e-05 -8.16896e-07
4.2343e-06 -1.10523e-08 -9.35121e-09
4.34957e-06 -7.72797e-09 2.92826e-08
4.42591e-06 -5.66814e-09 9.36925e-09
3.16867e-08 9.53548e-06 -7.13527e-07
2.39827e-08 8.2756e-06 -6.2486e-07
1.92295e-08 7.18769e-06 -5.38297e-07
1.58658e-08 6.21246e-06 -4.63143e-07
4.33448e-06 -1.07287e-08 -7.37331e-09
4.45587e-06 -7.79927e-09 2.99443e-08
4.53482e-06 -5.44666e-09 9.81843e-09
3.44681e-08 9.48179e-06 -7.10701e-07
2.61155e-08 8.22698e-06 -6.22841e-07
2.05612e-08 7.14386e-06 -5.35923e-07
1.65267e-08 6.17377e-06 -4.60631e-07
4.42601e-06 -1.03443e-08 -4.88256e-09