# vtk DataFile Version 3.0
vtk output
ASCII
DATASET POLYDATA
POINTS 6060 float
0.199736 0.304752 -0.0166308
0.189697 0.299723 -0.016577
0.219821 0.304649 -0.0163773
0.380104 0.304582 -0.0163259
0.179728 0.304699 -0.0160589
0.189706 0.289691 -0.016135
0.199748 0.294657 -0.0161667
0.209787 0.299638 -0.0162377
0.229863 0.299578 -0.0160305
0.239897 0.304543 -0.016277
0.249977 0.299657 -0.016119
0.259983 0.304649 -0.0162994
0.279968 0.304611 -0.0161854
0.299933 0.304569 -0.0161445
0.320016 0.304525 -0.016285
0.339984 0.304499 -0.0162402
0.359939 0.304467 -0.0162463
0.390084 0.299523 -0.0160116
0.400071 0.304513 -0.0162518
0.420043 0.304491 -0.0161966
0.489994 0.299442 -0.0160051
0.440054 0.304457 -0.0162525
0.460027 0.304453 -0.0162325
0.480003 0.304441 -0.0162567
0.169691 0.299701 -0.0157777
0.159639 0.304736 -0.015996
0.209795 0.289607 -0.0157646
0.219832 0.294566 -0.0158848
0.239903 0.294499 -0.0157507
0.259982 0.294605 -0.0158138
0.269977 0.299587 -0.0159837
0.28995 0.299546 -0.0159025
0.309903 0.2995 -0.0158939
0.320011 0.294477 -0.0158117
0.33998 0.294452 -0.0157603
0.359934 0.294423 -0.0157629
0.329999 0.299468 -0.016013
0.349959 0.29944 -0.0159909
0.369905 0.299407 -0.0160209
0.380094 0.294482 -0.0158504
0.400063 0.294465 -0.0157593
0.410049 0.299457 -0.0159671
0.43002 0.299432 -0.015936
0.440043 0.294407 -0.0157711
0.460017 0.294405 -0.0157513
0.479992 0.294398 -0.0157766
0.45003 0.29941 -0.0159926
0.470004 0.299403 -0.0159978
0.800264 0.304753 -0.0166304
0.500005 0.304484 -0.0162941
0.619896 0.304582 -0.0163258
0.810303 0.299724 -0.0165765
0.780179 0.30465 -0.0163769
0.510006 0.29944 -0.0160111
0.519997 0.304442 -0.0162568
0.539973 0.304453 -0.0162325
0.559947 0.304457 -0.0162524
0.609917 0.29952 -0.0160172
0.579958 0.304491 -0.0161966
0.599929 0.304513 -0.0162517
0.640061 0.304467 -0.0162468
0.660016 0.304499 -0.0162406
0.679984 0.304525 -0.0162855
0.750023 0.299657 -0.0161196
0.700067 0.304568 -0.0161444
0.720032 0.304611 -0.0161857
0.740017 0.304649 -0.0162999
0.810294 0.289691 -0.016135
0.800252 0.294657 -0.0161669
0.770137 0.299578 -0.0160301
0.790213 0.299638 -0.0162372
0.760103 0.304543 -0.0162765
0.820272 0.304699 -0.0160581
0.50003 0.294382 -0.0158529
0.520008 0.294396 -0.0157826
0.539984 0.294403 -0.0157578
0.559958 0.294404 -0.0157792
0.529996 0.299401 -0.0160039
0.54997 0.299407 -0.0159999
0.579966 0.294439 -0.0157148
0.599938 0.294462 -0.0157641
0.619907 0.29448 -0.0158557
0.56998 0.299429 -0.0159417
0.589952 0.299455 -0.0159725
0.640066 0.294423 -0.0157623
0.66002 0.294452 -0.0157598
0.679989 0.294477 -0.0158111
0.630095 0.299407 -0.0160215
0.650041 0.29944 -0.0159915
0.670001 0.299468 -0.0160136
0.740018 0.294605 -0.0158138
0.690097 0.299499 -0.0158939
0.71005 0.299545 -0.0159026
0.730023 0.299587 -0.015984
0.790205 0.289608 -0.0157646
0.760097 0.294499 -0.0157507
0.780168 0.294566 -0.0158849
0.830309 0.299702 -0.0157768
0.840361 0.304736 -0.0159952
0.119278 0.425369 -0.0216834
0.109226 0.430398 -0.0213019
0.109289 0.420313 -0.0204701
0.0992634 0.425359 -0.0199456
0.119338 0.415266 -0.0208597
0.0892763 0.430386 -0.0191751
0.119384 0.405239 -0.0200592
0.109354 0.410261 -0.0196868
0.0993297 0.415286 -0.0191904
0.089345 0.420336 -0.0184292
0.119394 0.395209 -0.0193558
0.109386 0.400254 -0.0189453
0.0993777 0.405295 -0.0183957
0.0793773 0.42539 -0.0175072
0.119401 0.385182 -0.0187349
0.0894013 0.410344 -0.0176748
0.109406 0.390247 -0.0182919
0.1194 0.375143 -0.0181607
0.0994184 0.395316 -0.0177063
0.109409 0.380213 -0.0177003
0.0794463 0.415424 -0.0168023
0.0694485 0.430477 -0.0163827
0.0894569 0.400381 -0.016932
0.119415 0.36512 -0.0176095
0.0994387 0.385306 -0.0170786
0.109422 0.370141 -0.0171298
0.119422 0.354972 -0.0170429
0.099452 0.375145 -0.0164746
0.109439 0.35998 -0.0165799
0.0895013 0.390239 -0.0161814
0.119465 0.344849 -0.0164425
0.0795158 0.405307 -0.0159311
0.109455 0.349895 -0.0160755
0.099464 0.365027 -0.0159691
0.0694937 0.420321 -0.0156534
0.119519 0.334797 -0.0158778
0.0895148 0.380137 -0.015639
0.169665 0.309777 -0.016302
0.149571 0.3098 -0.0161205
0.179706 0.314793 -0.0166122
0.159606 0.314808 -0.0165241
0.169645 0.319888 -0.0168608
0.149538 0.319893 -0.0166501
0.179698 0.324929 -0.0171916
0.159587 0.324924 -0.0170697
0.169636 0.330037 -0.0174564
0.149517 0.330029 -0.0172054
0.159572 0.33514 -0.0176691
0.179699 0.335081 -0.0178155
0.169634 0.340208 -0.018104
0.149502 0.340192 -0.0178134
0.159567 0.345217 -0.018297
0.179705 0.345139 -0.0184337
0.139427 0.345302 -0.0178832
0.149487 0.350252 -0.0184429
0.169635 0.350169 -0.018695
0.159569 0.355231 -0.0188659
0.179717 0.355152 -0.0189717
0.139418 0.355321 -0.0184717
0.149497 0.360268 -0.0189942
0.169655 0.360197 -0.0192152
0.159584 0.36526 -0.0194065
0.17974 0.365189 -0.0194765
0.139422 0.365344 -0.0190396
0.149505 0.370298 -0.0195509
0.169673 0.370233 -0.0197426
0.129338 0.37041 -0.019026
0.129342 0.360379 -0.0184501
0.129344 0.350366 -0.017876
0.13945 0.335059 -0.0172797
0.129392 0.340168 -0.0172368
0.139474 0.324928 -0.0167298
0.129423 0.330013 -0.0166647
0.139507 0.314827 -0.0162148
0.129462 0.319897 -0.0161415
0.189668 0.309846 -0.017104
0.209773 0.309748 -0.0167646
0.249972 0.309776 -0.0165788
0.22986 0.309637 -0.016567
0.199713 0.314901 -0.0172089
0.219816 0.314779 -0.0169304
0.239896 0.314661 -0.0168072
0.189634 0.320027 -0.0177238
0.209764 0.319909 -0.0173576
0.229858 0.319849 -0.0171509
0.199696 0.325113 -0.0178594
0.219817 0.324964 -0.0175538
0.239898 0.324898 -0.0174337
0.189605 0.330274 -0.0184223
0.209759 0.330125 -0.0180279
0.229866 0.330058 -0.0178165
0.199683 0.335245 -0.0185576
0.219823 0.335194 -0.0182622
0.23991 0.335118 -0.0181376
0.18958 0.34028 -0.0191102
0.209758 0.340227 -0.0187243
0.229878 0.340169 -0.0184981
0.199675 0.345266 -0.0192387
0.219831 0.345172 -0.0189003
0.239922 0.345078 -0.0187393
0.189559 0.350304 -0.0198156
0.209762 0.350231 -0.0193877
0.229891 0.350127 -0.0191187
0.199678 0.355257 -0.0198791
0.219852 0.35516 -0.0194894
0.239947 0.355065 -0.0192768
0.18956 0.360261 -0.0204361
0.209787 0.360198 -0.0199569
0.229927 0.360105 -0.0196235
0.199692 0.365242 -0.0204633
0.219886 0.36518 -0.0200281
0.239988 0.365091 -0.019748
0.189561 0.370293 -0.0210583
0.209811 0.370198 -0.0205023
0.229967 0.370138 -0.0201216
0.249964 0.3504 -0.0189628
0.249964 0.340384 -0.0183102
0.249968 0.36039 -0.0195307
0.249965 0.330222 -0.0176606
0.249975 0.370416 -0.0200534
0.249965 0.319885 -0.0171175
0.15959 0.375297 -0.0199542
0.179754 0.375231 -0.0199999
0.139418 0.37538 -0.019601
0.149499 0.380338 -0.0201223
0.169676 0.380278 -0.0203036
0.12932 0.380416 -0.0195836
0.179752 0.385261 -0.0205886
0.1394 0.385401 -0.0202128
0.159587 0.385349 -0.0205714
0.169665 0.390311 -0.0209637
0.149484 0.3904 -0.0207954
0.129294 0.390483 -0.0202443
0.159562 0.395397 -0.0213006
0.179745 0.395333 -0.0213206
0.139369 0.395477 -0.0209445
0.149446 0.400469 -0.0216081
0.169645 0.40041 -0.0217898
0.129245 0.400542 -0.021023
0.15952 0.405488 -0.022219
0.179713 0.405432 -0.0222413
0.139315 0.405561 -0.0218434
0.149386 0.410568 -0.0226117
0.169595 0.410513 -0.0228204
0.129175 0.410638 -0.0219949
0.159448 0.41561 -0.0233691
0.179653 0.415556 -0.0234177
0.139232 0.415666 -0.022953
0.149319 0.420644 -0.023618
0.169536 0.420613 -0.0238472
0.129095 0.420681 -0.0229913
0.139174 0.425696 -0.0238123
0.159401 0.425689 -0.0242458
0.179611 0.425668 -0.0243087
0.129026 0.430711 -0.0238774
0.14926 0.430732 -0.024535
0.169485 0.430735 -0.0247693
0.1997 0.375261 -0.0210291
0.219913 0.375201 -0.0205474
0.240023 0.375119 -0.0202077
0.189547 0.380326 -0.0216485
0.209823 0.380232 -0.0210583
0.229994 0.380174 -0.0206318
0.249982 0.380491 -0.0205593
0.199698 0.385314 -0.0216516
0.219933 0.385251 -0.0211315
0.240052 0.385173 -0.0207357
0.189528 0.390396 -0.0223409
0.20983 0.390294 -0.0217242
0.230017 0.390231 -0.0212564
0.199691 0.395399 -0.0223972
0.219944 0.395303 -0.02182
0.240075 0.395234 -0.021412
0.189502 0.400472 -0.0231466
0.209829 0.400381 -0.0225471
0.230028 0.400293 -0.0220055
0.199667 0.405485 -0.0233262
0.219939 0.405385 -0.0227692
0.240081 0.405307 -0.0222506
0.189453 0.410599 -0.0242003
0.209802 0.410474 -0.0236233
0.230017 0.410379 -0.0230469
0.199613 0.415613 -0.0245796
0.219903 0.415482 -0.0240386
0.240056 0.415397 -0.0234848
0.189396 0.420713 -0.025373
0.209767 0.420592 -0.0247279
0.229992 0.420473 -0.0242105
0.199579 0.425719 -0.0255876
0.219887 0.425627 -0.0249489
0.240044 0.42557 -0.0243966
0.189344 0.430851 -0.0264454
0.209739 0.430758 -0.0257416
0.229976 0.430695 -0.0251392
0.249944 0.43094 -0.0247239
0.249956 0.420771 -0.0237623
0.249965 0.41077 -0.0227318
0.249974 0.400629 -0.0217785
0.249986 0.390564 -0.0211662
0.059437 0.465522 -0.0161374
0.0593006 0.475497 -0.0167352
0.0591571 0.485617 -0.0174737
0.0493666 0.490449 -0.0156589
0.0590753 0.495862 -0.0179238
0.119209 0.435487 -0.0225263
0.0991762 0.435423 -0.0207408
0.0792978 0.435402 -0.0182228
0.109138 0.440536 -0.0221006
0.0891671 0.440443 -0.0199266
0.0693532 0.440437 -0.017008
0.119131 0.445674 -0.0233435
0.0990912 0.445547 -0.0214964
0.0792057 0.445452 -0.0188969
0.109062 0.450726 -0.0228325
0.0890815 0.450533 -0.0205834
0.0692862 0.450453 -0.0175218
0.119052 0.455933 -0.0241292
0.0990093 0.455728 -0.0221678
0.0791192 0.455533 -0.0194718
0.108972 0.460957 -0.023654
0.0889859 0.460723 -0.021294
0.069187 0.46054 -0.0181259
0.118958 0.466024 -0.0250228
0.0989164 0.465958 -0.022962
0.079003 0.465689 -0.020178
0.10888 0.471057 -0.024496
0.0889052 0.470956 -0.0219817
0.0690992 0.470695 -0.0186871
0.118867 0.476145 -0.0259022
0.0988277 0.476054 -0.0237249
0.0789297 0.475929 -0.0207467
0.108787 0.481168 -0.0253414
0.0888202 0.481042 -0.022689
0.0690142 0.48087 -0.0192239
0.118783 0.48628 -0.0267637
0.0987444 0.486162 -0.0244853
0.0788551 0.485998 -0.0213643
0.108712 0.491294 -0.0260661
0.0887445 0.491133 -0.0233327
0.0689379 0.490947 -0.0197684
0.0787853 0.496078 -0.021908
0.0492391 0.500533 -0.0160404
0.059002 0.505887 -0.0182669
0.0491603 0.510742 -0.0161937
0.0589489 0.515925 -0.0184183
[...]
POINT_DATA 6060
VECTORS alpha float
7.50659e-10 1.4863e-05 -9.69063e-07
5.66316e-06 -1.28488e-08 1.29454e-07
1.09565e-08 1.39169e-05 -9.01591e-07
3.65347e-09 4.53481e-06 -3.14984e-07
1.52143e-08 1.49294e-05 -9.52669e-07
5.82205e-06 -1.39696e-08 1.45294e-07
5.79126e-10 1.50439e-05 -9.67972e-07
6.08669e-06 -1.69135e-08 9.16246e-08
6.50928e-06 -2.02753e-08 3.93182e-08
1.97032e-08 1.24931e-05 -8.06969e-07
6.8962e-06 -1.11172e-08 7.01196e-08
1.25724e-08 1.09567e-05 -7.45765e-07
1.09738e-08 9.47539e-06 -6.44723e-07
9.57294e-09 8.18123e-06 -5.56303e-07
9.41859e-09 7.0929e-06 -4.84253e-07
6.89944e-09 6.15299e-06 -4.18048e-07
4.84227e-09 5.31333e-06 -3.59251e-07
8.64472e-06 -6.41469e-09 4.00621e-08
1.86214e-09 3.76744e-06 -2.60022e-07
4.64063e-10 3.00912e-06 -2.07316e-07
8.94615e-06 -7.14549e-09 -2.92016e-08
1.2922e-09 2.25243e-06 -1.54493e-07
3.78462e-10 1.49881e-06 -1.02506e-07
-5.28013e-11 7.4836e-07 -5.10726e-08
5.25325e-06 -1.76227e-08 -1.63015e-08
9.58184e-10 1.40512e-05 -8.9269e-07
6.23877e-06 -1.80455e-08 1.0352e-07
1.13428e-08 1.41013e-05 -9.0452e-07
1.9312e-08 1.26774e-05 -8.13553e-07
1.21476e-08 1.11227e-05 -7.50826e-07
7.26322e-06 -1.43211e-08 4.48058e-08
7.5914e-06 -1.66106e-08 1.76481e-08
7.87591e-06 -1.8815e-08 -9.24141e-09
9.31817e-09 7.20258e-06 -4.84916e-07
6.90386e-09 6.24391e-06 -4.18475e-07
4.92702e-09 5.38707e-06 -3.59532e-07
8.13382e-06 -1.02802e-08 2.0868e-08
8.33451e-06 -1.27844e-08 -9.84268e-10
8.49693e-06 -1.52809e-08 -2.31283e-08
3.65244e-09 4.59057e-06 -3.12847e-07
1.76598e-09 3.81283e-06 -2.59274e-07
8.74948e-06 -9.83981e-09 2.28385e-08
8.83037e-06 -1.2658e-08 5.21672e-09
1.24729e-09 2.27688e-06 -1.53915e-07
3.54268e-10 1.51455e-06 -1.02162e-07
-6.16296e-11 7.56051e-07 -5.0941e-08
8.88788e-06 -1.396e-09 8.06236e-09
8.92585e-06 -4.46823e-09 -1.21422e-08
7.34206e-10 -1.4863e-05 9.69227e-07
8.45078e-14 2.268e-10 -1.55195e-11
3.64547e-09 -4.53502e-06 3.14915e-07
5.66317e-06 1.29151e-08 -1.29438e-07
1.09435e-08 -1.3917e-05 9.0166e-07
8.94617e-06 6.91923e-09 2.93838e-08
-5.5572e-11 -7.47943e-07 5.10423e-08
3.72884e-10 -1.4985e-06 1.02478e-07
1.28408e-09 -2.25227e-06 1.54466e-07
8.64452e-06 6.46455e-09 -4.02715e-08
4.57985e-10 -3.00911e-06 2.0728e-07
1.85488e-09 -3.76756e-06 2.59975e-07
4.83708e-09 -5.31356e-06 3.59174e-07
6.89337e-09 -6.15319e-06 4.17966e-07
9.4113e-09 -7.09305e-06 4.84164e-07
6.89621e-06 1.11653e-08 -7.02074e-08
9.56242e-09 -8.18136e-06 5.56213e-07
1.0962e-08 -9.47544e-06 6.44659e-07
1.25588e-08 -1.09566e-05 7.45744e-07
5.82207e-06 1.39768e-08 -1.45313e-07
5.61612e-10 -1.50438e-05 9.68098e-07
6.5093e-06 2.03407e-08 -3.93155e-08
6.08671e-06 1.69797e-08 -9.16153e-08
1.96933e-08 -1.24932e-05 8.0695e-07
1.52222e-08 -1.49296e-05 9.52751e-07
7.26133e-14 1.84027e-10 -1.23916e-11
-6.23592e-11 -7.55685e-07 5.08865e-08
3.45676e-10 -1.51424e-06 1.02085e-07
1.22377e-09 -2.27665e-06 1.53829e-07
8.92573e-06 4.28768e-09 1.18799e-08
8.88765e-06 1.26067e-09 -8.78699e-09
3.95304e-10 -3.04309e-06 2.06497e-07
1.74324e-09 -3.81281e-06 2.59134e-07
3.59645e-09 -4.5906e-06 3.12713e-07
8.83004e-06 1.26446e-08 -4.95042e-09
8.7492e-06 9.85866e-09 -2.28101e-08
4.92103e-09 -5.38732e-06 3.59466e-07
6.89709e-09 -6.24414e-06 4.18401e-07
9.31073e-09 -7.20278e-06 4.84825e-07
8.4966e-06 1.53133e-08 2.31572e-08
8.33428e-06 1.27997e-08 9.97978e-10
8.13367e-06 1.0279e-08 -2.08741e-08
1.2133e-08 -1.11228e-05 7.50803e-07
7.87583e-06 1.88917e-08 9.19913e-09
7.59136e-06 1.66773e-08 -1.77036e-08
7.26321e-06 1.43782e-08 -4.48774e-08
6.2388e-06 1.80542e-08 -1.03536e-07
1.93e-08 -1.26774e-05 8.13585e-07
1.13281e-08 -1.41013e-05 9.04598e-07
5.25326e-06 1.76309e-08 1.62937e-08
9.63155e-10 -1.40514e-05 8.92783e-07
2.43183e-09 1.03897e-05 -8.23444e-07
1.52711e-05 1.99773e-08 -1.31655e-06
1.30385e-05 -1.97965e-09 -1.09858e-06
-4.33992e-09 1.06547e-05 -8.24813e-07
2.52998e-08 1.08648e-05 -7.89956e-07
1.34787e-05 2.40686e-08 -1.68938e-06
4.03833e-08 1.11254e-05 -7.28958e-07
1.08532e-05 -1.96412e-08 -8.97851e-07
9.31821e-09 1.12499e-05 -7.97153e-07
1.17631e-05 -1.04645e-08 -1.43794e-06
5.10966e-08 1.12242e-05 -6.82925e-07
8.91328e-06 -2.2749e-08 -7.32242e-07
2.62655e-08 1.16353e-05 -7.37654e-07
-3.99351e-08 1.57011e-05 -1.15391e-06
5.19245e-08 1.1213e-05 -6.43003e-07
1.00317e-05 -2.2294e-08 -1.20306e-06
7.28156e-06 -2.21974e-08 -5.89612e-07
5.09405e-08 1.11436e-05 -6.23943e-07
3.32655e-08 1.18461e-05 -6.88482e-07
6.03982e-06 -1.98487e-08 -4.80449e-07
-1.89448e-08 1.64245e-05 -1.13445e-06
1.15071e-05 9.80321e-09 -1.89543e-06
8.45247e-06 -1.69625e-08 -9.96348e-07
4.20507e-08 1.1054e-05 -6.11932e-07
3.77415e-08 1.19316e-05 -6.38455e-07
5.13429e-06 -2.01091e-08 -3.95833e-07
3.32979e-08 1.09728e-05 -6.03978e-07
3.64441e-08 1.19308e-05 -5.83696e-07
4.56797e-06 -2.50873e-08 -3.36926e-07
7.08016e-06 -2.12929e-08 -8.03427e-07
2.11085e-08 1.09229e-05 -5.97301e-07
8.08996e-09 1.69571e-05 -9.8681e-07
4.25526e-06 -2.88025e-08 -3.03307e-07
2.69605e-08 1.18831e-05 -5.62346e-07
1.02664e-05 -3.63018e-08 -1.61682e-06
7.72022e-09 1.09151e-05 -5.94673e-07
6.00183e-06 -2.55247e-08 -6.62847e-07
5.03824e-06 -1.4497e-08 -2.15031e-08
4.70343e-06 -1.14709e-08 -7.51139e-08
2.82164e-08 1.4758e-05 -9.35497e-07
1.40388e-08 1.39056e-05 -8.77589e-07
4.71353e-06 -1.23068e-08 -2.45605e-08
4.44304e-06 -9.43346e-09 -7.5923e-08
3.80051e-08 1.46117e-05 -9.20811e-07
2.45163e-08 1.37907e-05 -8.6523e-07
4.38167e-06 -1.16345e-08 -2.71845e-08
4.19773e-06 -8.97622e-09 -7.70435e-08
3.01721e-08 1.37158e-05 -8.65911e-07
4.45149e-08 1.44973e-05 -9.05616e-07
4.30771e-06 -1.36227e-08 -3.04328e-08
4.20449e-06 -1.10281e-08 -8.21121e-08
3.5532e-08 1.36676e-05 -8.35904e-07
4.87144e-08 1.44166e-05 -8.62021e-07
2.29182e-08 1.22055e-05 -7.63178e-07
4.15193e-06 -1.57105e-08 -8.04601e-08
4.14476e-06 -1.84435e-08 -2.13297e-08
3.85841e-08 1.36789e-05 -7.96163e-07
5.07073e-08 1.43969e-05 -8.11072e-07
2.64143e-08 1.22407e-05 -7.3451e-07
4.3194e-06 -1.39321e-08 -7.79174e-08
4.20149e-06 -1.64266e-08 -1.43303e-08
3.91151e-08 1.37487e-05 -7.77624e-07
4.98084e-08 1.44407e-05 -7.89877e-07
2.79885e-08 1.23247e-05 -7.18536e-07
4.81304e-06 -1.41053e-08 -8.10574e-08
4.60512e-06 -1.65847e-08 -7.90413e-09
5.01366e-06 -1.16176e-08 -1.81105e-07
4.46183e-06 -1.1176e-08 -1.64032e-07
4.20518e-06 -1.25145e-08 -1.58271e-07
1.92054e-08 1.22159e-05 -7.55691e-07
4.15695e-06 -8.88432e-09 -1.51036e-07
1.09946e-08 1.22591e-05 -7.63267e-07
4.07779e-06 -6.73421e-09 -1.42076e-07
7.37654e-10 1.2341e-05 -7.72441e-07
4.2347e-06 -7.05125e-09 -1.41644e-07
5.42632e-06 -1.2263e-08 1.20457e-07
5.83553e-06 -1.5744e-08 8.5433e-08
6.65411e-06 -9.03022e-09 6.58544e-08
6.25669e-06 -1.98732e-08 3.89904e-08
6.14448e-09 1.46839e-05 -9.82338e-07
1.56653e-08 1.37281e-05 -9.06869e-07
2.34632e-08 1.23038e-05 -8.05749e-07
5.05378e-06 -1.25307e-08 1.14334e-07
5.42131e-06 -1.54322e-08 8.1471e-08
5.81446e-06 -1.77326e-08 3.49709e-08
1.06716e-08 1.45172e-05 -1.00121e-06
1.96559e-08 1.3545e-05 -9.14406e-07
2.49942e-08 1.21179e-05 -8.17327e-07
4.64748e-06 -1.41022e-08 1.06163e-07
4.94674e-06 -1.62601e-08 7.56468e-08
5.28647e-06 -1.79158e-08 3.2859e-08
1.54421e-08 1.43666e-05 -9.84559e-07
2.27944e-08 1.3379e-05 -9.22823e-07
2.70695e-08 1.19379e-05 -8.19948e-07
4.49523e-06 -1.73452e-08 1.07735e-07
4.71431e-06 -1.90759e-08 7.51571e-08
4.98348e-06 -2.08083e-08 3.59781e-08
2.11937e-08 1.42425e-05 -9.26022e-07
2.61804e-08 1.32311e-05 -8.51853e-07
2.87092e-08 1.1776e-05 -7.48647e-07
4.22084e-06 -2.1232e-08 1.10791e-07
4.32704e-06 -2.24729e-08 7.79435e-08
4.49343e-06 -2.3147e-08 4.14095e-08
2.50483e-08 1.42002e-05 -8.63304e-07
2.904e-08 1.31566e-05 -7.88781e-07
3.04921e-08 1.16742e-05 -6.88318e-07
4.15844e-06 -1.94237e-08 1.19588e-07
4.13517e-06 -1.9521e-08 8.67512e-08
4.1776e-06 -1.89232e-08 5.27273e-08
2.89767e-08 1.4231e-05 -8.03338e-07
3.26147e-08 1.31506e-05 -7.39026e-07
3.29549e-08 1.16319e-05 -6.45557e-07
4.45602e-06 -2.16166e-08 1.41972e-07
4.30183e-06 -1.94765e-08 1.01709e-07
4.2115e-06 -1.83448e-08 6.66363e-08
4.71188e-06 -1.64944e-08 5.78335e-08
5.28545e-06 -1.22322e-08 5.7773e-08
4.29173e-06 -1.53982e-08 5.16038e-08
5.64199e-06 -8.71202e-09 5.82927e-08
4.20569e-06 -1.64798e-08 4.80863e-08
6.20466e-06 -9.26345e-09 6.8547e-08
4.28113e-08 1.38642e-05 -7.79727e-07
5.23476e-08 1.45419e-05 -7.88073e-07
3.23823e-08 1.24387e-05 -7.23251e-07
5.75568e-06 -1.53851e-08 -9.5972e-08
5.49529e-06 -1.85503e-08 -4.84587e-09
5.96459e-06 -1.20628e-08 -2.19878e-07
5.49808e-08 1.46867e-05 -8.15945e-07
3.59228e-08 1.25534e-05 -7.59533e-07
4.72435e-08 1.40043e-05 -8.20038e-07
6.94851e-06 -2.26397e-08 -2.01925e-09
7.1943e-06 -2.05398e-08 -1.21445e-07
7.33563e-06 -1.69409e-08 -2.80183e-07
4.31959e-08 1.41319e-05 -8.88804e-07
4.9084e-08 1.48441e-05 -8.92654e-07
3.53671e-08 1.26307e-05 -8.28633e-07
9.21808e-06 -2.489e-08 -1.63907e-07
9.07442e-06 -2.93445e-08 4.43284e-10
9.19633e-06 -2.20019e-08 -3.74205e-07
2.92826e-08 1.42086e-05 -1.02104e-06
3.24996e-08 1.49817e-05 -1.03193e-06
2.43142e-08 1.26243e-05 -9.45162e-07
1.17793e-05 -2.96573e-08 -2.33634e-07
1.1852e-05 -3.48464e-08 -7.60398e-09
1.14776e-05 -2.80047e-08 -5.08707e-07
4.92355e-09 1.41775e-05 -1.20972e-06
5.48937e-09 1.50442e-05 -1.24398e-06
2.66131e-09 1.24781e-05 -1.10584e-06
1.48186e-05 -2.03557e-08 -3.07704e-07
1.5227e-05 -2.84971e-08 -2.76068e-08
1.41192e-05 -1.8119e-08 -6.40618e-07
-1.40336e-08 1.21529e-05 -1.18077e-06
-1.64729e-08 1.39899e-05 -1.33462e-06
-1.91746e-08 1.49847e-05 -1.39557e-06
1.68997e-05 2.39212e-08 -7.4574e-07
1.80987e-05 9.29577e-09 -3.68353e-07
1.89537e-05 -5.70541e-09 -5.27074e-08
3.4748e-08 1.4324e-05 -7.66721e-07
3.62683e-08 1.3208e-05 -7.04693e-07
3.45018e-08 1.16512e-05 -6.16812e-07
5.27019e-06 -2.59665e-08 1.74599e-07
4.99506e-06 -2.18682e-08 1.28171e-07
4.77071e-06 -1.91543e-08 8.85057e-08
4.63797e-06 -2.04344e-08 5.07444e-08
4.01313e-08 1.44693e-05 -7.80923e-07
3.91459e-08 1.33249e-05 -7.16759e-07
3.49285e-08 1.1732e-05 -6.28819e-07
6.71111e-06 -3.66715e-08 2.2748e-07
6.35531e-06 -2.91015e-08 1.74114e-07
6.02501e-06 -2.35904e-08 1.27855e-07
4.04104e-08 1.46404e-05 -8.66878e-07
3.64875e-08 1.34845e-05 -7.90309e-07
3.1705e-08 1.18598e-05 -6.98813e-07
8.90809e-06 -5.28994e-08 3.00322e-07
8.52781e-06 -4.34304e-08 2.51489e-07
8.13155e-06 -3.00882e-08 1.99899e-07
3.10957e-08 1.48123e-05 -1.04371e-06
2.74445e-08 1.36583e-05 -9.56711e-07
2.13523e-08 1.2025e-05 -8.38487e-07
1.18761e-05 -8.03751e-08 3.84172e-07
1.15616e-05 -6.49996e-08 3.4945e-07
1.11755e-05 -4.24318e-08 3.04116e-07
1.01209e-08 1.49397e-05 -1.33876e-06
6.84536e-09 1.38188e-05 -1.23652e-06
2.21746e-09 1.21939e-05 -1.09098e-06
1.55742e-05 -1.05618e-07 5.19547e-07
1.54234e-05 -7.79356e-08 4.68172e-07
1.51332e-05 -5.50335e-08 4.221e-07
-6.12382e-09 1.49979e-05 -1.52324e-06
-9.82623e-09 1.39506e-05 -1.40439e-06
-1.32861e-08 1.2354e-05 -1.23964e-06
1.97588e-05 -1.04164e-07 7.32196e-07
1.98763e-05 -7.73267e-08 6.424e-07
1.97743e-05 -4.75611e-08 5.44912e-07
1.96191e-05 -7.62968e-08 4.01293e-07
1.48317e-05 -7.6021e-08 2.67399e-07
1.08108e-05 -6.83611e-08 1.23491e-07
7.81231e-06 -4.2945e-08 6.17458e-08
5.78863e-06 -2.83699e-08 5.42759e-08
-3.62486e-08 2.44462e-05 -1.52552e-06
2.48516e-09 2.30969e-05 -1.50143e-06
2.18708e-08 2.19975e-05 -1.32132e-06
2.95939e-06 5.11603e-09 -6.76541e-07
4.77924e-08 2.13633e-05 -1.02661e-06
-9.27042e-09 9.6528e-06 -8.04355e-07
-1.40894e-08 9.79892e-06 -8.03507e-07
-4.84217e-08 1.47614e-05 -1.15047e-06
1.7262e-05 4.58506e-08 -1.54056e-06
1.49119e-05 4.81963e-08 -1.90715e-06
1.24597e-05 2.83317e-08 -2.09424e-06
-1.27303e-08 8.62319e-06 -7.31901e-07
-1.79287e-08 8.67235e-06 -7.26022e-07
-4.34031e-08 1.35904e-05 -1.09087e-06
1.86658e-05 7.13409e-08 -1.76042e-06
1.57826e-05 7.85478e-08 -2.08212e-06
1.29126e-05 6.82313e-08 -2.23243e-06
-8.26885e-09 7.27999e-06 -6.04028e-07
-1.27679e-08 7.27511e-06 -5.93815e-07
-2.92165e-08 1.21939e-05 -9.52318e-07
1.90948e-05 8.24561e-08 -1.9225e-06
1.57704e-05 1.04516e-07 -2.18263e-06
1.26219e-05 9.23701e-08 -2.25064e-06
-1.00062e-08 5.65273e-06 -4.78582e-07
-1.14578e-08 5.66151e-06 -4.54227e-07
-2.34935e-08 1.06646e-05 -8.11802e-07
1.80821e-05 8.04815e-08 -1.899e-06
1.44978e-05 1.13242e-07 -2.11433e-06
1.12959e-05 1.06246e-07 -2.09401e-06
-9.06538e-09 3.80361e-06 -3.18313e-07
-9.37649e-09 3.91196e-06 -3.02248e-07
-1.60055e-08 9.10271e-06 -6.24782e-07
1.50348e-05 7.70797e-08 -1.69009e-06
1.15167e-05 9.75573e-08 -1.76613e-06
8.60514e-06 9.5038e-08 -1.66916e-06
-5.01295e-09 1.86518e-06 -1.43626e-07
-5.48813e-09 2.18197e-06 -1.53474e-07
-1.33551e-08 7.66475e-06 -4.71648e-07
9.51754e-06 5.95459e-08 -1.10921e-06
6.49146e-06 6.18425e-08 -1.03014e-06
4.3162e-06 5.40208e-08 -8.63966e-07
-8.85716e-09 6.58099e-06 -3.36479e-07
-1.70262e-06 -1.1526e-08 3.97493e-07
7.86083e-08 2.13925e-05 -7.39593e-07
-7.73261e-06 -8.82389e-08 1.81656e-06
1.21129e-07 2.24264e-05 -3.60403e-07
-1.51266e-05 -2.15579e-07 3.56845e-06
1.99306e-07 2.47856e-05 2.25321e-07
-2.38047e-05 -3.96347e-07 5.57458e-06
3.33021e-07 2.87486e-05 1.17073e-06
5.38969e-07 3.45937e-05 2.62787e-06
8.40345e-07 4.25746e-05 4.81064e-06
-4.49217e-11 2.00439e-08 -1.31421e-09
-1.33525e-09 6.80911e-07 -4.04589e-08
-1.78116e-06 -2.46926e-08 3.64926e-07
1.09471e-06 8.79129e-09 -1.31238e-07
-8.90742e-07 -9.97639e-09 1.45003e-07
1.23777e-09 6.12132e-06 -2.16615e-07
1.53237e-09 -1.47651e-06 7.24095e-08
1.69791e-10 -3.24398e-07 1.38833e-08
-9.83408e-06 -1.56175e-07 2.03989e-06
-1.05832e-05 -1.11289e-07 1.27687e-06
-1.08682e-05 -1.45805e-07 1.79075e-06
-2.43928e-09 -2.30889e-06 5.60508e-08
-8.76126e-10 -5.11716e-07 9.81832e-09
1.74922e-08 6.59827e-06 -8.9793e-08
-1.98823e-05 -3.55437e-07 4.12183e-06
-2.57092e-05 -3.18556e-07 3.10035e-06
-2.35477e-05 -3.7154e-07 3.86252e-06
2.35318e-09 4.84694e-07 5.49917e-09
-8.03861e-09 -2.10107e-06 -1.32682e-08
4.82676e-08 8.35429e-06 1.22048e-07
-3.1864e-05 -6.35802e-07 6.48392e-06
-3.89002e-05 -7.12119e-07 6.25589e-06
-4.4313e-05 -6.44271e-07 5.28913e-06
2.62212e-08 3.05066e-06 1.43816e-07
1.14478e-07 1.17426e-05 5.77129e-07
-3.3687e-09 -4.47703e-07 -1.98245e-08
-5.67123e-05 -1.11326e-06 8.92667e-06
-4.55907e-05 -1.00037e-06 8.93978e-06
-6.62118e-05 -1.0333e-06 7.76575e-06
2.42656e-07 1.70903e-05 1.50389e-06
3.64409e-08 3.06601e-06 2.76089e-07
1.00879e-07 7.56554e-06 6.81854e-07
-6.0666e-05 -1.41044e-06 1.18622e-05
-9.1011e-05 -1.52261e-06 1.07058e-05
-7.65936e-05 -1.59113e-06 1.20877e-05
4.66654e-07 2.46965e-05 3.18316e-06
1.46183e-07 8.83596e-06 1.22198e-06
2.60691e-07 1.43804e-05 1.94278e-06
-3.7636e-08 1.47487e-05 -1.46753e-06
-2.29184e-08 1.15758e-05 -1.19109e-06
-3.09703e-08 1.35787e-05 -1.38707e-06
1.9517e-05 7.91084e-08 -8.69113e-07
2.13231e-05 5.78044e-08 -4.60075e-07
2.27515e-05 3.3404e-08 -1.16485e-07
-4.45659e-08 1.42528e-05 -1.46097e-06
-1.90383e-08 1.07024e-05 -1.10731e-06
-3.28219e-08 1.28875e-05 -1.34539e-06
2.61203e-05 8.18369e-08 -2.3706e-07
2.40296e-05 1.17927e-07 -5.92046e-07
2.15626e-05 1.25745e-07 -9.88398e-07
-5.0578e-08 1.34305e-05 -1.38484e-06
-1.19851e-08 9.49232e-06 -9.3549e-07
-3.06856e-08 1.18633e-05 -1.20805e-06
2.57139e-05 1.22115e-07 -6.73748e-07
2.8502e-05 8.12988e-08 -3.10007e-07
2.2581e-05 1.56984e-07 -1.08913e-06
-5.70703e-08 1.22646e-05 -1.25978e-06
-2.68296e-08 1.0477e-05 -1.00766e-06
-5.68689e-09 7.9393e-06 -7.17889e-07
2.57188e-05 1.17633e-07 -7.39188e-07
2.91702e-05 7.70798e-08 -4.06953e-07
2.20071e-05 1.46044e-07 -1.10673e-06
-2.27804e-08 8.74063e-06 -7.68953e-07
-5.23269e-08 1.07339e-05 -1.02709e-06
-1.02886e-09 6.0793e-06 -4.79474e-07
2.3183e-05 1.0915e-07 -7.87127e-07
2.71483e-05 7.32997e-08 -4.86843e-07
1.91012e-05 1.27592e-07 -1.08705e-06
-1.79537e-08 6.74031e-06 -5.3104e-07
-4.74689e-08 8.89685e-06 -7.70398e-07
6.78706e-10 4.02937e-06 -2.81041e-07
1.74411e-05 1.05287e-07 -6.83125e-07
2.16597e-05 8.22268e-08 -4.5355e-07
1.33135e-05 1.07435e-07 -8.59017e-07
-2.16397e-08 1.49237e-05 -1.65613e-06
-2.50957e-08 1.39772e-05 -1.5377e-06
-2.72597e-08 1.24412e-05 -1.35932e-06
2.41578e-05 -7.83671e-08 9.78415e-07
2.46764e-05 -6.23e-08 8.41191e-07
2.4888e-05 -4.2295e-08 6.90623e-07
2.50162e-05 -4.58542e-08 5.82758e-07
-3.79169e-08 1.38449e-05 -1.59826e-06
-3.86596e-08 1.24075e-05 -1.41983e-06
-3.26932e-08 1.46458e-05 -1.68733e-06
2.99393e-05 -5.66723e-08 8.6803e-07
2.82498e-05 -5.64026e-08 1.24023e-06
2.92929e-05 -5.39516e-08 1.05659e-06
3.04457e-05 -2.64031e-08 7.3899e-07
-4.80922e-08 1.21423e-05 -1.40084e-06
-3.76052e-08 1.40334e-05 -1.58865e-06
-4.3942e-08 1.34237e-05 -1.52146e-06
3.1381e-05 -6.37643e-08 1.38816e-06
3.30415e-05 -8.25947e-08 1.21014e-06
3.42283e-05 -9.80774e-08 9.994e-07
3.51779e-05 -8.41033e-08 9.23755e-07
-5.0421e-08 1.16196e-05 -1.2363e-06
-3.43421e-08 1.30972e-05 -1.36236e-06
-4.43833e-08 1.27134e-05 -1.3452e-06
3.27671e-05 -9.0744e-08 1.45214e-06
3.50888e-05 -1.34675e-07 1.28137e-06
3.68743e-05 -1.77459e-07 1.06805e-06
3.83823e-05 -1.46157e-07 1.0441e-06
-5.14828e-08 1.07998e-05 -1.05984e-06
-2.92002e-08 1.17847e-05 -1.07965e-06
-4.26473e-08 1.16594e-05 -1.11474e-06
3.13176e-05 -1.12685e-07 1.26395e-06
3.42755e-05 -1.64604e-07 1.16395e-06
3.66711e-05 -2.1759e-07 1.01621e-06
3.87863e-05 -1.64009e-07 8.46597e-07
-2.5634e-08 1.01463e-05 -8.67693e-07
-4.07743e-08 1.02919e-05 -9.25567e-07
-5.1607e-08 9.68984e-06 -9.02851e-07
2.61396e-05 -7.83444e-08 9.18241e-07
2.96185e-05 -1.24906e-07 9.08294e-07
3.25554e-05 -1.75698e-07 8.53539e-07
3.51996e-05 -1.89814e-07 6.55402e-07
-9.66929e-09 4.61125e-06 -2.9941e-07
-3.54645e-08 6.85658e-06 -5.00269e-07
2.34772e-09 1.95489e-06 -1.08293e-07
1.18781e-05 6.66186e-08 -2.59193e-07
4.09734e-06 4.1754e-08 -2.83767e-07
7.80634e-06 5.82991e-08 -3.34387e-07
-2.01126e-09 2.55581e-06 -1.15498e-07
-2.03217e-08 4.78249e-06 -2.54085e-07
2.59084e-10 8.86215e-08 -3.15754e-09
-2.95598e-06 -2.2517e-08 6.85579e-08
-9.03098e-06 -1.15175e-07 6.4713e-07
-6.33858e-06 -6.20125e-08 2.81398e-07
-8.38065e-09 2.91976e-06 -7.8488e-08
-6.37919e-09 -1.26962e-06 1.32079e-08
7.78948e-10 8.49613e-07 -1.67313e-08
-2.6391e-05 -3.93111e-07 1.86842e-06
-2.54401e-05 -2.9838e-07 1.10832e-06
-2.34234e-05 -2.04515e-07 5.31908e-07
-1.33669e-08 -1.75597e-06 -3.72249e-08
-5.01389e-10 -1.59766e-07 -2.05316e-09
-1.74677e-09 1.58942e-06 8.94087e-09
-4.97215e-05 -6.13934e-07 2.08696e-06
-4.98776e-05 -4.61328e-07 1.06154e-06
-4.8094e-05 -7.51294e-07 3.30679e-06
-1.0442e-08 -9.59817e-07 -5.76459e-08
-4.20116e-10 -7.01374e-08 -3.72091e-09
1.53804e-09 1.17723e-06 5.49812e-08
-7.91516e-05 -9.88236e-07 3.06532e-06
-8.24017e-05 -7.56063e-07 1.47514e-06
-7.40207e-05 -1.17739e-06 4.82825e-06
1.49476e-08 1.55745e-06 1.5932e-07
9.41923e-09 2.11439e-06 2.06233e-07
2.31031e-08 1.55161e-06 1.66243e-07
-0.000120718 -1.17824e-06 2.47263e-06
-0.000103721 -1.76428e-06 7.18864e-06
-0.000113351 -1.50708e-06 4.78716e-06
1.18874e-07 6.20494e-06 9.79692e-07
6.97871e-08 5.17076e-06 8.02084e-07
3.84181e-08 4.85619e-06 7.368e-07
-1.80189e-08 8.26241e-06 -6.12878e-07
-3.41429e-08 8.66049e-06 -6.85416e-07
-4.68874e-08 8.32308e-06 -6.91171e-07
1.62522e-05 -2.65206e-08 5.30912e-07
2.00157e-05 -5.68284e-08 5.88526e-07
2.33175e-05 -9.39479e-08 6.0831e-07
2.6249e-05 -9.3161e-08 3.94131e-07
-8.09892e-09 6.27947e-06 -3.51577e-07
-2.3851e-08 6.88253e-06 -4.22965e-07
-3.78039e-08 6.78741e-06 -4.48074e-07
7.40179e-07 6.1306e-10 2.29716e-08
4.42549e-06 -1.90786e-09 1.23852e-07
7.79857e-06 -1.3184e-08 1.93615e-07
1.08193e-05 -4.3875e-08 1.56263e-07
1.17396e-09 4.40933e-06 -1.29248e-07
-1.20953e-08 5.1377e-06 -1.80507e-07
-2.56401e-08 5.23288e-06 -2.10648e-07
-2.11323e-05 -4.68229e-08 -6.47735e-07
-1.80317e-05 -1.83171e-08 -4.97885e-07
-1.50162e-05 2.95323e-09 -3.66417e-07
-1.23428e-05 5.1413e-08 -2.01279e-07
-2.68517e-09 3.67703e-06 -8.09526e-09
-1.4621e-08 3.87852e-06 -3.11108e-08
7.03172e-09 2.9356e-06 1.20019e-08
-4.98436e-05 -1.57156e-07 -1.53362e-06
-4.79866e-05 -9.42912e-08 -1.31361e-06
-4.5909e-05 -3.4809e-08 -1.08777e-06
-4.41119e-05 2.05645e-07 -8.05186e-07
1.1384e-08 2.21966e-06 1.03902e-07
4.05145e-09 2.83078e-06 1.13727e-07
-6.5563e-09 3.02193e-06 1.01899e-07
-8.56128e-05 -2.73792e-07 -2.65982e-06
-8.58051e-05 -1.80367e-07 -2.38124e-06
-8.53986e-05 -8.28528e-08 -2.05917e-06