# vtk DataFile Version 3.0
vtk output
ASCII
DATASET POLYDATA
POINTS 35754 float
0.376428 1.58266 -0.0964082
0.36607 1.57772 -0.0959906
0.355678 1.58278 -0.0960125
0.417792 1.58248 -0.0968786
0.438359 1.58243 -0.0967447
0.458922 1.58237 -0.0970134
0.47944 1.58236 -0.0967718
0.407556 1.57754 -0.0963573
0.428096 1.57747 -0.0964724
0.39732 1.58258 -0.0964287
0.458925 1.5724 -0.0963754
0.448657 1.57742 -0.0964928
0.469175 1.57738 -0.0965377
0.489661 1.57737 -0.0964652
0.417825 1.5725 -0.0962532
0.438366 1.57246 -0.0961155
0.479409 1.57239 -0.0961521
0.499848 1.57237 -0.096249
0.376467 1.57268 -0.0957715
0.33477 1.58294 -0.0956297
0.38685 1.57764 -0.0959065
0.407593 1.56756 -0.0957191
0.428116 1.56749 -0.0958385
0.397382 1.5726 -0.0958178
0.458916 1.56242 -0.0957462
0.448659 1.56744 -0.0958684
0.469157 1.56741 -0.0959108
0.489624 1.56739 -0.0958402
0.313971 1.58311 -0.0952716
0.366117 1.56775 -0.0953555
0.355731 1.57281 -0.0953963
0.345314 1.57787 -0.0954969
0.417848 1.56253 -0.0956145
0.438372 1.56248 -0.0954784
0.479379 1.56241 -0.0955256
0.499801 1.5624 -0.095628
0.324457 1.57803 -0.0952045
0.376529 1.5627 -0.0951236
0.3869 1.56766 -0.0952498
0.33486 1.57296 -0.0950498
0.417875 1.55255 -0.0949755
0.407622 1.55759 -0.0950972
0.428128 1.55752 -0.0952073
0.397427 1.56262 -0.0951859
0.458899 1.55245 -0.0951168
0.44865 1.55747 -0.0952448
0.469131 1.55743 -0.0952849
0.48958 1.55742 -0.0952236
0.31408 1.57313 -0.0946698
0.303449 1.57822 -0.0947876
0.292867 1.58331 -0.0948648
0.366175 1.55777 -0.0947351
0.386948 1.55769 -0.0946139
0.3558 1.56283 -0.0947806
0.345395 1.56789 -0.0948817
0.438374 1.55251 -0.0948476
0.469125 1.54746 -0.094639
0.479341 1.55244 -0.0949011
0.15314 1.69508 -0.0966029
0.153443 1.68509 -0.0960872
0.153744 1.6751 -0.0955528
0.154076 1.66511 -0.0949871
0.154345 1.65512 -0.0945251
0.190826 1.63955 -0.0962713
0.214987 1.63921 -0.0961519
0.191071 1.62956 -0.0956794
0.179017 1.63475 -0.0956992
0.203056 1.63439 -0.0958211
0.21519 1.62923 -0.0955525
0.20327 1.6244 -0.0952943
0.179291 1.62476 -0.0951171
0.167037 1.63995 -0.0948962
0.215386 1.61924 -0.0950106
0.191328 1.61958 -0.0950862
0.17956 1.61477 -0.0945497
0.203496 1.61441 -0.0946955
0.259565 1.63859 -0.0972478
0.248557 1.63373 -0.0969893
0.270568 1.63347 -0.0970436
0.237622 1.63888 -0.0970089
0.25969 1.62861 -0.0966451
0.248704 1.62375 -0.096366
0.270685 1.62349 -0.0964099
0.237785 1.6289 -0.0963643
0.259815 1.61862 -0.0960306
0.226655 1.63406 -0.0961289
0.270794 1.61351 -0.0957751
0.248845 1.61377 -0.095729
0.237954 1.61891 -0.0957534
0.226807 1.62407 -0.0955816
0.259945 1.60864 -0.0953875
0.270924 1.60352 -0.0951396
0.249002 1.60378 -0.0951092
0.23811 1.60893 -0.0951518
0.226971 1.61409 -0.0949944
0.260097 1.59866 -0.0947403
0.202829 1.64437 -0.0964027
0.178825 1.64474 -0.0961903
0.190616 1.64954 -0.0968092
0.214782 1.6492 -0.0967429
0.166767 1.64994 -0.0953905
0.202595 1.65436 -0.0969896
0.178591 1.65473 -0.0966848
0.165692 1.68989 -0.0975874
0.190376 1.65953 -0.0973636
0.214589 1.65919 -0.0973355
0.1665 1.65992 -0.0959343
0.16593 1.6799 -0.0970669
0.166213 1.66991 -0.096487
0.202349 1.66434 -0.097601
0.178356 1.66472 -0.0972159
0.190135 1.66952 -0.0979116
0.214359 1.66917 -0.0979543
0.189863 1.6795 -0.0985361
0.214153 1.67915 -0.0985759
0.20212 1.67433 -0.0981869
0.178089 1.6747 -0.0977738
0.201873 1.68431 -0.0987692
0.177857 1.68469 -0.0982872
0.189616 1.68949 -0.0990961
0.213959 1.68914 -0.0991565
0.201646 1.6943 -0.0993341
0.177623 1.69468 -0.0988154
0.24841 1.64371 -0.0976169
0.270458 1.64345 -0.0976647
0.22648 1.64404 -0.0967372
0.259424 1.64857 -0.0979035
0.237453 1.64886 -0.0975866
0.248285 1.6537 -0.0982221
0.270348 1.65343 -0.098325
0.2263 1.65403 -0.097362
0.270226 1.66341 -0.0989691
0.259292 1.65855 -0.0985522
0.237297 1.65885 -0.0981901
0.259164 1.66853 -0.0991814
0.24813 1.66368 -0.0988497
0.237121 1.66883 -0.0987944
0.226094 1.66401 -0.0980152
0.225922 1.67399 -0.0986188
0.248004 1.67366 -0.0994525
0.270119 1.67339 -0.0995916
0.259021 1.67851 -0.0998079
0.236961 1.67881 -0.0994342
0.225728 1.68397 -0.0992294
0.247846 1.68364 -0.100082
0.269998 1.68337 -0.100231
0.258898 1.68849 -0.100437
0.236825 1.68879 -0.100026
0.225559 1.69396 -0.0998142
0.247713 1.69363 -0.10069
0.269888 1.69335 -0.100873
0.140951 1.70028 -0.0948428
0.152863 1.70506 -0.0970447
0.140606 1.71026 -0.0953252
0.152588 1.71505 -0.0974626
0.140217 1.72025 -0.0958499
0.152278 1.72504 -0.0979767
0.139945 1.73024 -0.0962958
0.152003 1.73502 -0.0984772
0.139617 1.74023 -0.0968201
0.151712 1.74501 -0.0990001
0.15145 1.755 -0.0994489
0.139235 1.75022 -0.0973728
0.138933 1.76021 -0.097834
0.151187 1.76498 -0.0999331
0.138646 1.7702 -0.0982567
0.150907 1.77497 -0.100402
0.138369 1.78019 -0.0986388
0.15064 1.78496 -0.100856
0.163044 1.78974 -0.102679
0.138094 1.79018 -0.0990501
0.150374 1.79495 -0.101247
0.162749 1.79972 -0.103212
0.137774 1.80017 -0.0994964
0.150065 1.80494 -0.101712
0.162498 1.80971 -0.103648
0.137451 1.81015 -0.0999577
0.12563 1.80538 -0.0972536
0.126021 1.79539 -0.096792
0.126316 1.7854 -0.0963952
0.12662 1.77542 -0.0959604
0.126941 1.76543 -0.0955464
0.127184 1.75544 -0.0951601
0.127668 1.74545 -0.094583
0.165411 1.69987 -0.0981435
0.189358 1.69947 -0.0996724
0.21374 1.69912 -0.0996898
0.201405 1.70428 -0.0999105
0.177351 1.70466 -0.0993535
0.164336 1.73982 -0.100186
0.164037 1.7498 -0.100765
0.16515 1.70986 -0.0986214
0.189108 1.70946 -0.100232
0.213512 1.70911 -0.100289
0.164853 1.71985 -0.0991267
0.164574 1.72983 -0.0996839
0.201153 1.71427 -0.100499
0.177078 1.71465 -0.0998699
0.188884 1.71944 -0.100767
0.213283 1.71909 -0.100887
0.176815 1.72463 -0.100416
0.20089 1.72425 -0.101102
0.213068 1.72907 -0.101496
0.188659 1.72943 -0.101306
0.200656 1.73424 -0.101662
0.176565 1.73462 -0.100982
0.188417 1.73941 -0.101855
0.212871 1.73905 -0.102078
0.176345 1.7446 -0.101544
0.200416 1.74422 -0.102245
0.188176 1.74939 -0.102415
0.212643 1.74903 -0.102674
0.20019 1.7542 -0.102808
0.258754 1.69847 -0.101068
0.236684 1.69878 -0.100578
0.26976 1.70333 -0.1015
0.225358 1.70394 -0.100401
0.247555 1.70361 -0.1013
0.258609 1.70845 -0.101697
0.236535 1.70876 -0.101153
0.247393 1.71359 -0.101923
0.269622 1.71331 -0.10213
0.22515 1.71392 -0.101003
0.258466 1.71844 -0.102296
0.236367 1.71874 -0.101748
0.224954 1.7239 -0.101629
0.269498 1.72329 -0.102748
0.247272 1.72357 -0.102494
0.258334 1.72841 -0.102908
0.236211 1.72872 -0.102391
0.224791 1.73389 -0.102169
0.269378 1.73327 -0.10338
0.247138 1.73355 -0.103103
0.258219 1.7384 -0.103541
0.236045 1.7387 -0.103027
0.224602 1.74387 -0.102778
0.269256 1.74325 -0.104015
0.246998 1.74353 -0.103721
0.224413 1.75385 -0.103359
0.235873 1.74868 -0.1036
0.258077 1.74837 -0.104184
0.26913 1.75323 -0.104632
0.246841 1.75351 -0.104356
0.163551 1.76977 -0.101727
0.163282 1.77975 -0.102241
0.17611 1.75459 -0.10212
0.187946 1.75938 -0.102947
0.212432 1.75902 -0.103254
0.16381 1.75978 -0.101229
0.199953 1.76418 -0.103391
0.175868 1.76457 -0.102678
0.187752 1.76936 -0.103455
0.212205 1.769 -0.103814
0.199675 1.77417 -0.104026
0.175595 1.77455 -0.103254
0.187472 1.77934 -0.104021
0.211973 1.77898 -0.104409
0.175404 1.78454 -0.103738
0.199438 1.78415 -0.104598
0.187242 1.78932 -0.104618
0.21176 1.78896 -0.105005
0.175092 1.79452 -0.104354
0.199189 1.79412 -0.105215
0.187001 1.79931 -0.105201
0.211525 1.79894 -0.105619
0.174802 1.8045 -0.104916
0.198936 1.80411 -0.105819
0.186774 1.80929 -0.105776
0.21128 1.80892 -0.106237
0.235692 1.75866 -0.104213
0.257953 1.75835 -0.104793
0.224227 1.76383 -0.103966
0.269015 1.7632 -0.10526
0.24671 1.76349 -0.104964
0.235507 1.76864 -0.10483
0.257813 1.76833 -0.105423
0.224012 1.77381 -0.104558
0.268881 1.77318 -0.105905
0.246533 1.77347 -0.105572
0.235322 1.77862 -0.105429
0.257691 1.77831 -0.106007
0.223853 1.78379 -0.105129
0.268773 1.78316 -0.106526
0.246433 1.78345 -0.10613
0.235165 1.78861 -0.106013
0.257544 1.78829 -0.106649
0.223428 1.80376 -0.106349
0.223637 1.79377 -0.105751
0.268639 1.79314 -0.107174
0.246275 1.79343 -0.106774
0.234971 1.79858 -0.106647
0.257416 1.79827 -0.107225
0.268511 1.80312 -0.107779
0.246134 1.80341 -0.107356
0.23477 1.80856 -0.107261
0.257267 1.80824 -0.107826
0.324363 1.58801 -0.0958278
0.303333 1.5882 -0.0953868
0.313874 1.59309 -0.0959166
0.292739 1.59329 -0.095466
0.32429 1.59799 -0.09647
0.303226 1.59818 -0.0959965
0.324205 1.60797 -0.0970804
0.313791 1.60307 -0.0965939
0.292596 1.60327 -0.0960837
0.313679 1.61304 -0.0971985
0.303099 1.60815 -0.0966324
0.292457 1.61325 -0.0966508
0.324096 1.61795 -0.0976983
0.302966 1.61813 -0.0972202
0.313564 1.62302 -0.0977985
0.292313 1.62323 -0.0972497
0.324004 1.62792 -0.0983214
0.302875 1.62811 -0.097848
0.313456 1.633 -0.098418
0.292184 1.63321 -0.0978485
0.323912 1.6379 -0.0989543
0.302759 1.63809 -0.0984578
0.281268 1.63832 -0.0975951
0.281432 1.62834 -0.0970248
0.281585 1.61836 -0.0964399
0.281741 1.60838 -0.0958353
0.28191 1.5984 -0.0952416
0.282046 1.58842 -0.094649
0.36603 1.5877 -0.0966306
0.386824 1.58761 -0.0965495
0.345249 1.58785 -0.0961154
0.376376 1.59263 -0.0970662
0.355625 1.59276 -0.0966569
0.334703 1.59292 -0.0963013
0.386781 1.59759 -0.0971938
0.36598 1.59768 -0.0972774
0.345185 1.59783 -0.0967558
0.376328 1.60261 -0.0977239
0.36592 1.60765 -0.0979214
0.386735 1.60756 -0.0978485
0.345109 1.6078 -0.0973772
0.355572 1.60274 -0.0973239
0.334619 1.6029 -0.0969527
0.376279 1.61259 -0.09837
0.355501 1.61271 -0.0979528
0.334527 1.61287 -0.0975749
0.365847 1.61763 -0.098566
0.386687 1.61754 -0.0985035
0.345033 1.61778 -0.098028
0.376227 1.62256 -0.099036
0.355424 1.62269 -0.0985841
0.334424 1.62285 -0.0982468
0.334344 1.63283 -0.098898
0.365789 1.62761 -0.0992205
0.38665 1.62751 -0.0991653
0.344955 1.62776 -0.0986847
0.376193 1.63254 -0.0997053
0.355361 1.63267 -0.0992356
0.365756 1.63758 -0.0998539
0.386636 1.63749 -0.099813
0.344879 1.63774 -0.0993291
0.313356 1.64298 -0.099052
0.292093 1.64318 -0.0984972
0.281137 1.6483 -0.0982293
0.323839 1.64788 -0.0996277
0.302649 1.64807 -0.0990873
0.313264 1.65296 -0.099715
[...]
POINT_DATA 35754
VECTORS alpha float
-3.05998e-08 6.58137e-06 -4.36124e-07
2.43619e-07 -8.10204e-10 6.24346e-09
-3.09488e-08 7.70032e-06 -5.0704e-07
-1.25478e-08 4.39254e-06 -2.96235e-07
-8.90848e-09 3.2967e-06 -2.23467e-07
-4.17065e-09 2.19834e-06 -1.48585e-07
-1.95208e-10 1.09912e-06 -7.43435e-08
2.43962e-07 -5.67235e-10 3.40191e-09
2.4504e-07 -4.40336e-10 3.5331e-09
-7.4502e-09 5.48553e-06 -3.67061e-07
-3.99656e-09 2.19871e-06 -1.48556e-07
2.45533e-07 -3.48259e-10 2.38584e-09
2.4604e-07 -1.45056e-10 2.86346e-09
2.45939e-07 -2.04505e-10 -1.12275e-09
-1.23942e-08 4.39319e-06 -2.96881e-07
-8.23304e-09 3.29721e-06 -2.2366e-07
-1.1371e-11 1.09929e-06 -7.43757e-08
-6.10477e-15 -8.59069e-12 5.81018e-13
-2.95379e-08 6.58235e-06 -4.38519e-07
-4.26255e-08 8.87976e-06 -5.85318e-07
2.44662e-07 -7.68037e-10 3.4258e-09
2.36368e-07 -5.42123e-10 3.35971e-09
2.37601e-07 -4.23648e-10 3.4319e-09
-6.52838e-09 5.48628e-06 -3.688e-07
-3.84631e-09 2.19909e-06 -1.4978e-07
2.38231e-07 -3.28617e-10 2.40733e-09
2.38814e-07 -1.38396e-10 2.76734e-09
2.38773e-07 -1.9796e-10 -1.12052e-09
-5.95599e-08 1.01782e-05 -6.69681e-07
2.35698e-07 -7.71716e-10 6.16032e-09
-3.0124e-08 7.70141e-06 -5.09439e-07
2.41902e-07 -1.05923e-09 6.26561e-09
-1.25956e-08 4.3939e-06 -2.99209e-07
-8.27635e-09 3.29777e-06 -2.25205e-07
1.45502e-10 1.09948e-06 -7.50063e-08
-6.59668e-15 -8.572e-12 5.84911e-13
2.41712e-07 -1.30566e-09 6.6074e-09
-2.90519e-08 6.58339e-06 -4.41236e-07
2.36906e-07 -7.36228e-10 3.3542e-09
-4.19129e-08 8.88121e-06 -5.86665e-07
-1.18218e-08 4.39487e-06 -2.9706e-07
2.37445e-07 -5.31811e-10 3.47768e-09
2.38848e-07 -4.18922e-10 3.47738e-09
-6.54398e-09 5.48718e-06 -3.70849e-07
-3.56849e-09 2.19956e-06 -1.49032e-07
2.39597e-07 -3.22601e-10 2.44214e-09
2.40264e-07 -1.36464e-10 2.72498e-09
2.40272e-07 -2.02539e-10 -1.28465e-09
-5.68174e-08 1.01802e-05 -6.65027e-07
2.41086e-07 -1.5476e-09 7.74023e-09
-4.56809e-08 1.1662e-05 -7.20744e-07
2.36493e-07 -7.55514e-10 6.4233e-09
2.37958e-07 -7.28185e-10 3.45402e-09
-3.07305e-08 7.70269e-06 -5.1057e-07
2.33752e-07 -1.00715e-09 6.28059e-09
-7.54214e-09 3.29848e-06 -2.24066e-07
2.35915e-07 -1.30835e-10 2.67619e-09
2.78628e-10 1.09972e-06 -7.46414e-08
-5.8099e-07 2.0517e-05 -1.07458e-06
-5.507e-07 2.05212e-05 -1.0665e-06
-5.54985e-07 2.05265e-05 -1.07286e-06
-5.14312e-07 2.05314e-05 -1.05401e-06
-5.19227e-07 2.05367e-05 -1.07438e-06
2.65779e-07 -3.03454e-09 1.63311e-08
2.62742e-07 -2.89428e-09 1.20702e-08
2.66438e-07 -3.0302e-09 1.67458e-08
-4.02737e-07 2.03397e-05 -1.16477e-06
-3.10735e-07 1.91193e-05 -1.10516e-06
2.63221e-07 -2.88778e-09 1.23128e-08
-3.13196e-07 1.9124e-05 -1.11111e-06
-4.40966e-07 2.03452e-05 -1.19961e-06
2.66271e-07 -3.11563e-09 9.8733e-09
2.46668e-07 -2.69165e-09 1.16321e-08
2.49311e-07 -2.8292e-09 1.57806e-08
-4.57069e-07 2.03495e-05 -1.20659e-06
-3.40361e-07 1.9128e-05 -1.11322e-06
2.6057e-07 -2.37514e-09 9.40674e-09
-1.39577e-07 1.529e-05 -9.14544e-07
-7.43543e-08 1.3362e-05 -8.15036e-07
2.5942e-07 -2.62182e-09 1.02713e-08
2.60811e-07 -2.36278e-09 9.62647e-09
-1.43459e-07 1.52931e-05 -9.22076e-07
-7.53191e-08 1.33649e-05 -8.16624e-07
2.59758e-07 -2.61739e-09 1.06268e-08
2.45499e-07 -2.20351e-09 9.30009e-09
-1.9788e-07 1.73019e-05 -1.04792e-06
-8.2677e-08 1.33675e-05 -8.17454e-07
-1.60982e-07 1.5296e-05 -9.28201e-07
2.43981e-07 -2.4415e-09 1.01625e-08
-1.93375e-07 1.73062e-05 -1.03681e-06
2.44254e-07 -2.18367e-09 9.26651e-09
-8.47638e-08 1.33708e-05 -8.13053e-07
-1.58901e-07 1.52997e-05 -9.22352e-07
2.42937e-07 -2.41805e-09 1.01585e-08
-2.11907e-07 1.73095e-05 -1.0284e-06
2.41199e-07 -2.14574e-09 9.18975e-09
-3.04713e-07 1.91149e-05 -1.09818e-06
-3.95744e-07 2.03347e-05 -1.15096e-06
2.67242e-07 -3.06826e-09 1.61001e-08
2.64244e-07 -2.92307e-09 1.199e-08
2.67796e-07 -3.13966e-09 9.65892e-09
-3.06303e-07 1.91104e-05 -1.09604e-06
-3.92405e-07 2.03303e-05 -1.15084e-06
2.85523e-07 -3.40951e-09 7.94488e-09
2.71783e-07 -3.13596e-09 1.63028e-08
2.68624e-07 -2.98595e-09 1.20648e-08
2.72376e-07 -3.20082e-09 9.74668e-09
2.82687e-07 -3.34718e-09 8.98078e-09
2.76426e-07 -3.2599e-09 9.28373e-09
-2.96873e-07 1.91059e-05 -1.09051e-06
-3.86807e-07 2.03252e-05 -1.14776e-06
2.75678e-07 -3.18475e-09 1.64005e-08
2.72462e-07 -3.03607e-09 1.22691e-08
2.82044e-07 -3.25517e-09 1.66135e-08
2.78555e-07 -3.10768e-09 1.25006e-08
-3.09267e-07 1.91014e-05 -1.10364e-06
-3.9339e-07 2.03201e-05 -1.15761e-06
-2.91508e-07 1.90962e-05 -1.08855e-06
-3.66186e-07 2.03153e-05 -1.13571e-06
2.84988e-07 -3.31043e-09 1.62697e-08
2.81568e-07 -3.16159e-09 1.23242e-08
-2.90647e-07 1.90917e-05 -1.08045e-06
-3.73042e-07 2.03107e-05 -1.12837e-06
-1.38717e-07 1.52867e-05 -9.12522e-07
-7.56669e-08 1.33589e-05 -8.16039e-07
-1.97349e-07 1.72982e-05 -1.0456e-06
2.62197e-07 -2.40286e-09 9.35126e-09
2.61055e-07 -2.65843e-09 1.00784e-08
-1.32306e-07 1.52828e-05 -9.15823e-07
-7.35329e-08 1.33553e-05 -8.20555e-07
-1.85606e-07 1.7294e-05 -1.03726e-06
-7.81192e-08 1.33519e-05 -8.17177e-07
2.6656e-07 -2.45503e-09 9.40275e-09
2.65462e-07 -2.72275e-09 1.00657e-08
2.70135e-07 -2.50836e-09 9.36915e-09
-1.3439e-07 1.52788e-05 -9.13651e-07
2.69234e-07 -2.77556e-09 1.0125e-08
-1.83907e-07 1.72898e-05 -1.02272e-06
-1.85476e-07 1.72851e-05 -1.02849e-06
-1.26858e-07 1.52758e-05 -9.06559e-07
-7.33233e-08 1.33486e-05 -8.17763e-07
2.75892e-07 -2.57508e-09 9.43626e-09
2.75151e-07 -2.83953e-09 1.02997e-08
-1.80729e-07 1.72813e-05 -1.01761e-06
-1.24954e-07 1.52722e-05 -8.98018e-07
-7.42483e-08 1.33456e-05 -8.0816e-07
2.7876e-07 -2.62321e-09 9.21435e-09
2.78135e-07 -2.89417e-09 9.97413e-09
-1.7717e-07 1.7277e-05 -1.00875e-06
-1.18401e-07 1.52681e-05 -8.91897e-07
-7.11233e-08 1.33418e-05 -8.06499e-07
2.76139e-07 -3.38192e-09 -9.3483e-09
-5.70826e-07 2.05129e-05 -1.0785e-06
2.84605e-07 -3.50684e-09 -1.05605e-08
-5.54522e-07 2.0507e-05 -1.06353e-06
2.88006e-07 -3.56458e-09 -1.12672e-08
-5.45491e-07 2.05018e-05 -1.06197e-06
2.88417e-07 -3.60021e-09 -1.20895e-08
-5.13081e-07 2.04966e-05 -1.04329e-06
3.02469e-07 -3.79908e-09 -1.3304e-08
-5.06961e-07 2.04912e-05 -1.04571e-06
-5.3063e-07 2.04867e-05 -1.03658e-06
3.11195e-07 -3.93103e-09 -1.38603e-08
3.11675e-07 -3.97063e-09 -1.48344e-08
-5.68273e-07 2.0482e-05 -1.07421e-06
3.20881e-07 -4.12931e-09 -1.64309e-08
-6.03992e-07 2.04771e-05 -1.08375e-06
3.24744e-07 -4.21868e-09 -1.76196e-08
-6.09284e-07 2.04721e-05 -1.07747e-06
3.48721e-07 -4.48774e-09 -1.33154e-09
3.38278e-07 -4.44794e-09 -2.01214e-08
-6.05409e-07 2.04667e-05 -1.07103e-06
3.53807e-07 -4.5818e-09 -1.8726e-09
3.42249e-07 -4.56017e-09 -2.18855e-08
-6.17339e-07 2.04604e-05 -1.07617e-06
3.57688e-07 -4.66842e-09 -2.98326e-09
3.45059e-07 -4.65909e-09 -2.40301e-08
-6.51501e-07 1.94517e-05 -9.04866e-07
-6.63965e-07 1.94572e-05 -9.3224e-07
-6.57885e-07 1.94624e-05 -9.6319e-07
-6.38811e-07 1.94668e-05 -9.58314e-07
-6.03627e-07 1.94716e-05 -9.38704e-07
-6.04345e-07 1.9476e-05 -9.23616e-07
-6.06483e-07 1.94804e-05 -9.30935e-07
2.85494e-07 -3.42319e-09 7.39363e-09
2.84967e-07 -3.32256e-09 1.59437e-08
2.81686e-07 -3.17736e-09 1.21481e-08
-2.83045e-07 1.90873e-05 -1.08008e-06
-3.47533e-07 2.03062e-05 -1.11579e-06
3.12574e-07 -3.8511e-09 4.22959e-09
3.20782e-07 -3.97554e-09 3.53799e-09
2.94411e-07 -3.55337e-09 6.8053e-09
2.93841e-07 -3.4445e-09 1.60957e-08
2.90487e-07 -3.29536e-09 1.23861e-08
2.97871e-07 -3.61895e-09 5.99025e-09
2.98526e-07 -3.65357e-09 5.24248e-09
-2.82191e-07 1.90835e-05 -1.06641e-06
-3.25733e-07 2.03006e-05 -1.07921e-06
2.97252e-07 -3.50579e-09 1.60493e-08
2.94046e-07 -3.35143e-09 1.24262e-08
-3.17726e-07 2.0295e-05 -1.07517e-06
-2.78539e-07 1.90785e-05 -1.05739e-06
2.94867e-07 -3.37532e-09 1.21922e-08
2.97945e-07 -3.53096e-09 1.55912e-08
-2.55742e-07 1.90733e-05 -1.04873e-06
-3.10551e-07 2.02904e-05 -1.08296e-06
3.12227e-07 -3.71123e-09 1.5913e-08
3.08988e-07 -3.55355e-09 1.24478e-08
-3.25549e-07 2.02855e-05 -1.11667e-06
-2.64492e-07 1.90685e-05 -1.05818e-06
3.20137e-07 -3.82555e-09 1.58829e-08
3.1647e-07 -3.65595e-09 1.2541e-08
-2.58129e-07 1.90639e-05 -1.03523e-06
2.78793e-07 -2.63451e-09 9.10747e-09
2.78179e-07 -2.91677e-09 9.59386e-09
-7.19367e-08 1.33385e-05 -8.01339e-07
-1.76409e-07 1.72728e-05 -1.01317e-06
-1.14218e-07 1.52644e-05 -8.8827e-07
2.87277e-07 -2.73417e-09 9.17402e-09
2.86915e-07 -3.03202e-09 9.56905e-09
-1.13828e-07 1.5261e-05 -8.76703e-07
-7.34512e-08 1.33353e-05 -7.95877e-07
-1.78616e-07 1.72688e-05 -1.00995e-06
2.90745e-07 -2.78494e-09 9.07776e-09
2.90449e-07 -3.08772e-09 9.47515e-09
-1.74976e-07 1.72641e-05 -1.00603e-06
-7.74564e-08 1.33315e-05 -7.94977e-07
-1.11895e-07 1.52566e-05 -8.75652e-07
2.91371e-07 -2.81409e-09 8.70894e-09
2.91334e-07 -3.10858e-09 9.27854e-09
-1.57875e-07 1.72595e-05 -9.94058e-07
-7.51466e-08 1.33277e-05 -7.92701e-07
-9.8855e-08 1.52526e-05 -8.78087e-07
3.04727e-07 -2.95767e-09 8.95852e-09
3.04901e-07 -3.27678e-09 9.30155e-09
-1.61938e-07 1.72549e-05 -9.98043e-07
-7.86501e-08 1.33244e-05 -7.8572e-07
-1.02064e-07 1.52483e-05 -8.80019e-07
-1.64196e-07 1.72507e-05 -9.86402e-07
3.11683e-07 -3.37233e-09 9.31043e-09
3.11286e-07 -3.03437e-09 8.95465e-09
-8.24514e-08 1.33212e-05 -7.87276e-07
-1.02912e-07 1.52449e-05 -8.78836e-07
3.30206e-07 -4.16843e-09 1.13716e-09
3.34352e-07 -4.25552e-09 3.297e-10
-3.37771e-07 2.02801e-05 -1.11558e-06
3.21111e-07 -3.85854e-09 1.53854e-08
3.17562e-07 -3.6817e-09 1.23513e-08
3.21246e-07 -4.01023e-09 2.37712e-09
-2.50265e-07 1.9059e-05 -1.03357e-06
-3.50105e-07 2.02749e-05 -1.1192e-06
3.30056e-07 -3.98769e-09 1.5137e-08
3.26368e-07 -3.80062e-09 1.24565e-08
-2.43942e-07 1.90539e-05 -1.02435e-06
-3.68227e-07 2.02692e-05 -1.10357e-06
3.34793e-07 -4.06549e-09 1.4816e-08
3.31249e-07 -3.87021e-09 1.25028e-08
-3.78566e-07 2.02639e-05 -1.08271e-06
-2.22051e-07 1.9049e-05 -1.01542e-06
3.49794e-07 -4.26946e-09 1.5135e-08
3.45879e-07 -4.04772e-09 1.28595e-08
-3.7717e-07 2.02588e-05 -1.10067e-06
-2.12585e-07 1.90439e-05 -1.01044e-06
3.54804e-07 -4.35497e-09 1.49257e-08
3.5093e-07 -4.11808e-09 1.28619e-08
-3.82674e-07 2.02529e-05 -1.11376e-06
-2.22759e-07 1.90388e-05 -1.02609e-06
3.5935e-07 -4.43755e-09 1.45254e-08
3.55718e-07 -4.17841e-09 1.29513e-08
3.12577e-07 -3.40061e-09 9.17113e-09
3.12106e-07 -3.0617e-09 8.66371e-09
-1.64319e-07 1.7246e-05 -9.89952e-07
-7.98481e-08 1.33175e-05 -7.91142e-07
-9.7557e-08 1.5241e-05 -8.81698e-07
3.20773e-07 -3.51138e-09 9.19399e-09
3.20327e-07 -3.16078e-09 8.63259e-09
-1.71098e-07 1.72419e-05 -9.77223e-07
-8.23997e-08 1.33141e-05 -7.87994e-07
-1.04356e-07 1.52367e-05 -8.86579e-07
3.25574e-07 -3.5854e-09 9.11347e-09
3.25213e-07 -3.23852e-09 8.3278e-09
-1.70012e-07 1.72379e-05 -9.77721e-07
-8.36028e-08 1.33107e-05 -7.86595e-07
-1.00351e-07 1.52329e-05 -8.84535e-07
3.39215e-07 -3.75493e-09 9.23091e-09
3.38516e-07 -3.38469e-09 8.52596e-09
-1.79776e-07 1.72293e-05 -9.7701e-07
-1.69172e-07 1.7234e-05 -9.64997e-07
-7.88137e-08 1.33073e-05 -7.81026e-07
-9.23132e-08 1.52289e-05 -8.79605e-07
3.43966e-07 -3.82226e-09 9.20104e-09
3.43277e-07 -3.47381e-09 8.04849e-09
-8.01776e-08 1.33038e-05 -7.71088e-07
-9.29652e-08 1.5225e-05 -8.68881e-07
3.48566e-07 -3.88631e-09 9.22771e-09
3.48112e-07 -3.54342e-09 7.89499e-09
2.45075e-07 -1.33278e-09 6.56774e-09
2.43456e-07 -1.57575e-09 7.5794e-09
-5.61546e-08 1.01759e-05 -6.69487e-07
-4.15589e-08 1.16596e-05 -7.17709e-07
2.45666e-07 -1.34359e-09 6.5781e-09
2.43984e-07 -1.5927e-09 7.44619e-09
2.49112e-07 -1.37715e-09 6.47238e-09
-5.48831e-08 1.01732e-05 -6.7493e-07
-4.25492e-08 1.16568e-05 -7.22393e-07
-5.39022e-08 1.01707e-05 -6.72747e-07
2.47275e-07 -1.6224e-09 7.4199e-09
-4.18964e-08 1.1654e-05 -7.19817e-07
2.51082e-07 -1.39804e-09 6.38428e-09
2.4891e-07 -1.64895e-09 7.16096e-09
-5.01766e-08 1.01684e-05 -6.6791e-07
-3.75078e-08 1.16516e-05 -7.21647e-07
2.64468e-07 -1.48727e-09 6.58862e-09
2.63041e-07 -1.75837e-09 7.50333e-09
-4.82145e-08 1.01662e-05 -6.65001e-07
-3.3949e-08 1.16489e-05 -7.23139e-07
2.64468e-07 -1.49539e-09 6.54383e-09
2.62997e-07 -1.76759e-09 7.38449e-09
2.62495e-07 -2.06125e-09 7.59505e-09
2.62441e-07 -2.04664e-09 7.83689e-09
2.47531e-07 -1.91034e-09 7.65931e-09
2.45959e-07 -1.89231e-09 7.69646e-09
2.42756e-07 -1.85383e-09 7.75031e-09
2.42431e-07 -1.82808e-09 7.92025e-09
2.493e-07 -8.34363e-10 6.40988e-09
2.51569e-07 -7.89339e-10 3.61053e-09
2.46442e-07 -1.0914e-09 6.22975e-09
-2.98042e-08 6.57985e-06 -4.34416e-07
-2.89942e-08 7.69854e-06 -5.07027e-07
-3.93572e-08 8.87758e-06 -5.86133e-07
2.52291e-07 -8.00022e-10 3.58755e-09
2.49922e-07 -8.48332e-10 6.32179e-09
2.47029e-07 -1.10574e-09 6.12951e-09
-3.00276e-08 6.57799e-06 -4.37457e-07
2.53693e-07 -8.70566e-10 6.35168e-09
2.56265e-07 -8.17317e-10 3.70418e-09
2.50618e-07 -1.13787e-09 6.00645e-09
-2.74492e-08 7.69645e-06 -5.10508e-07
-3.90033e-08 8.87532e-06 -5.894e-07
-2.87657e-08 6.57628e-06 -4.35521e-07
-2.66438e-08 7.69454e-06 -5.08947e-07
-3.77783e-08 8.87305e-06 -5.89312e-07
2.56209e-07 -8.9069e-10 6.24652e-09
2.59101e-07 -8.33808e-10 3.72233e-09
2.52794e-07 -1.1565e-09 5.99232e-09
-2.85181e-08 6.57446e-06 -4.35017e-07
-2.51129e-08 7.69243e-06 -5.0938e-07
-3.53681e-08 8.8707e-06 -5.89535e-07
-3.35522e-08 8.86887e-06 -5.86026e-07
2.67883e-07 -9.38413e-10 6.4987e-09
2.70025e-07 -8.71773e-10 3.97513e-09
2.65285e-07 -1.22432e-09 6.1872e-09
-2.8275e-08 6.57289e-06 -4.3437e-07
-2.35056e-08 7.69085e-06 -5.05154e-07
2.67959e-07 -9.40572e-10 6.58794e-09
2.7016e-07 -8.69183e-10 4.19734e-09
2.65343e-07 -1.23479e-09 6.10152e-09
-4.5211e-08 1.01637e-05 -6.67049e-07
-2.9179e-08 1.16462e-05 -7.27796e-07
2.642e-07 -2.09068e-09 7.52294e-09
2.66349e-07 -1.5127e-09 6.64671e-09
2.64765e-07 -1.79392e-09 7.29377e-09
-4.30909e-08 1.01612e-05 -6.68382e-07
-2.73904e-08 1.16431e-05 -7.35146e-07
2.70884e-07 -1.5391e-09 6.93752e-09
2.6926e-07 -1.82879e-09 7.48314e-09
2.68514e-07 -2.13863e-09 7.63694e-09
-4.50685e-08 1.01585e-05 -6.70831e-07
-3.04282e-08 1.16401e-05 -7.36745e-07
2.71931e-07 -2.19026e-09 7.51524e-09
2.74363e-07 -1.57647e-09 6.89803e-09
2.72853e-07 -1.87592e-09 7.26307e-09
-4.16884e-08 1.01563e-05 -6.65962e-07
-3.0519e-08 1.16375e-05 -7.29445e-07
2.77489e-07 -2.25332e-09 7.53216e-09
2.79963e-07 -1.6228e-09 6.82783e-09
2.78407e-07 -1.93369e-09 7.06129e-09
-3.86216e-08 1.01538e-05 -6.61768e-07
-3.07485e-08 1.16348e-05 -7.2273e-07
2.80302e-07 -2.29705e-09 7.37324e-09
2.82932e-07 -1.65922e-09 6.67606e-09
2.81232e-07 -1.97905e-09 6.72185e-09
2.80342e-07 -2.31281e-09 7.34006e-09
-3.29788e-08 1.01511e-05 -6.57156e-07
-2.62819e-08 1.16314e-05 -7.24973e-07
2.83191e-07 -1.6638e-09 6.71466e-09
2.81286e-07 -1.98708e-09 6.74132e-09
-3.24285e-08 8.86659e-06 -5.89987e-07
-2.74707e-08 6.57123e-06 -4.36105e-07
-2.28631e-08 7.68881e-06 -5.08952e-07
2.72082e-07 -8.79181e-10 4.34306e-09
-3.15123e-08 8.8643e-06 -5.93427e-07
2.69892e-07 -9.56533e-10 6.62616e-09
2.67255e-07 -1.25478e-09 6.11199e-09
-2.68586e-08 6.56971e-06 -4.3428e-07
-2.1981e-08 7.68689e-06 -5.09384e-07
2.76739e-07 -9.02382e-10 4.45549e-09
2.74385e-07 -9.78191e-10 6.82685e-09
2.71799e-07 -1.2816e-09 6.29172e-09
-3.40822e-08 8.8619e-06 -5.95604e-07
-2.78145e-08 6.56808e-06 -4.33436e-07
-2.21421e-08 7.68472e-06 -5.11937e-07
2.77913e-07 -1.0098e-09 6.69875e-09
2.80337e-07 -9.26381e-10 4.45976e-09
2.75336e-07 -1.32091e-09 6.08047e-09
-3.28189e-08 8.85978e-06 -5.94433e-07
-2.60625e-08 6.56653e-06 -4.3225e-07
-1.9862e-08 7.68283e-06 -5.12091e-07
-3.27738e-08 8.8576e-06 -5.92933e-07
-3.27967e-08 8.85511e-06 -5.94326e-07
2.83506e-07 -1.04231e-09 6.71092e-09
2.86007e-07 -9.5187e-10 4.54629e-09
2.80952e-07 -1.36319e-09 6.03689e-09
-2.40715e-08 6.5648e-06 -4.32e-07
-1.83543e-08 7.68089e-06 -5.11117e-07
2.86547e-07 -1.06394e-09 6.73072e-09
2.8914e-07 -9.71982e-10 4.59173e-09
2.83876e-07 -1.3932e-09 6.01541e-09
-2.30904e-08 6.56293e-06 -4.33406e-07
-1.67494e-08 7.67873e-06 -5.12917e-07
2.8693e-07 -1.06704e-09 6.85315e-09
2.89622e-07 -9.71485e-10 4.89855e-09
2.84265e-07 -1.3945e-09 6.17067e-09
2.53652e-07 -4.5815e-10 3.66875e-09
2.51746e-07 -5.89378e-10 3.49833e-09
-1.17037e-08 4.39157e-06 -2.94568e-07
-6.60774e-09 5.48429e-06 -3.6493e-07
-8.31212e-09 3.29594e-06 -2.22675e-07
-1.17963e-08 4.39037e-06 -2.95523e-07
-8.65044e-09 3.29505e-06 -2.23383e-07
2.52631e-07 -5.99522e-10 3.44136e-09
2.54457e-07 -4.64999e-10 3.62252e-09
-7.06363e-09 5.48269e-06 -3.66706e-07
2.58751e-07 -4.77918e-10 3.69082e-09
2.56807e-07 -6.18681e-10 3.45561e-09
-1.06384e-08 4.38918e-06 -2.9538e-07
-8.41614e-09 3.29421e-06 -2.229e-07
-6.46904e-09 5.4813e-06 -3.64972e-07
2.59887e-07 -6.37757e-10 3.42093e-09
2.62024e-07 -4.91377e-10 3.71699e-09
-1.03991e-08 4.38793e-06 -2.95596e-07
-8.51259e-09 3.29329e-06 -2.22902e-07
-6.66953e-09 5.47969e-06 -3.64726e-07
2.70164e-07 -6.6578e-10 3.57835e-09
2.71774e-07 -5.14693e-10 3.81156e-09
-8.70983e-09 4.38691e-06 -2.94272e-07
-8.19493e-09 3.29254e-06 -2.21572e-07
-5.46284e-09 5.47839e-06 -3.63424e-07
2.72046e-07 -5.13872e-10 3.844e-09
2.703e-07 -6.63869e-10 3.68037e-09
2.5462e-07 -3.64786e-10 2.47013e-09
2.55412e-07 -1.52159e-10 2.98997e-09
2.55425e-07 -2.10644e-10 -1.10706e-09
-3.95504e-09 2.19788e-06 -1.47711e-07
-1.68365e-10 1.09889e-06 -7.39267e-08
-3.17746e-15 -8.45254e-12 5.69018e-13
-4.07111e-09 2.1973e-06 -1.48267e-07
2.56386e-07 -1.54416e-10 3.01807e-09
2.56397e-07 -2.10209e-10 -1.06102e-09
-2.28148e-10 1.09858e-06 -7.42876e-08
2.55463e-07 -3.68157e-10 2.46868e-09
2.5985e-07 -3.82449e-10 2.489e-09
2.60727e-07 -1.6075e-10 3.06967e-09
2.60761e-07 -2.16639e-10 -1.08712e-09
-3.91297e-09 2.19674e-06 -1.48109e-07
-1.81552e-10 1.09831e-06 -7.41599e-08
2.63272e-07 -3.94452e-10 2.52625e-09
2.64242e-07 -1.68389e-10 3.12785e-09
2.64316e-07 -2.21446e-10 -1.03771e-09
-3.77241e-09 2.19613e-06 -1.48071e-07
-2.28465e-10 1.09801e-06 -7.42374e-08
2.72656e-07 -4.11024e-10 2.61935e-09
2.73397e-07 -1.77177e-10 3.22379e-09
2.73341e-07 -2.29525e-10 -1.06794e-09
-3.41041e-09 2.19559e-06 -1.47703e-07
-2.77328e-10 1.09775e-06 -7.39104e-08
2.72942e-07 -4.10334e-10 2.6441e-09
2.73697e-07 -1.77774e-10 3.19488e-09
2.73645e-07 -2.30508e-10 -1.13547e-09
7.02396e-15 -8.26358e-12 5.56928e-13
-7.60884e-09 4.38587e-06 -2.94464e-07
-7.66988e-09 3.29177e-06 -2.21576e-07
-3.9265e-09 5.47699e-06 -3.64276e-07
2.74169e-07 -5.23556e-10 3.85184e-09
2.72397e-07 -6.70608e-10 3.74028e-09
-6.81205e-09 4.38488e-06 -2.93056e-07
-7.08821e-09 3.29099e-06 -2.20719e-07
-2.52162e-09 5.47562e-06 -3.6337e-07
2.771e-07 -6.94637e-10 3.71961e-09
2.78804e-07 -5.3849e-10 3.90609e-09
-7.74409e-09 4.38373e-06 -2.94353e-07
-7.86537e-09 3.29012e-06 -2.21588e-07
-3.65921e-09 5.47409e-06 -3.645e-07
2.80693e-07 -7.18457e-10 3.61071e-09
2.82408e-07 -5.55148e-10 3.87404e-09
-7.54112e-09 4.38269e-06 -2.92755e-07
-7.89733e-09 3.28935e-06 -2.2046e-07
-4.48323e-09 5.47284e-06 -3.62732e-07
2.86308e-07 -7.48033e-10 3.48595e-09
2.88077e-07 -5.75915e-10 3.90991e-09
-7.11847e-09 4.38154e-06 -2.92593e-07
-7.77003e-09 3.28851e-06 -2.19826e-07
-4.94377e-09 5.47139e-06 -3.62189e-07
2.91289e-07 -5.93441e-10 3.84817e-09
2.89377e-07 -7.65053e-10 3.45948e-09
-6.79505e-09 4.38044e-06 -2.90886e-07
-7.56535e-09 3.28767e-06 -2.18398e-07
-4.35805e-09 5.46993e-06 -3.62636e-07
2.9193e-07 -5.99537e-10 3.87683e-09
2.89922e-07 -7.76131e-10 3.42385e-09
-3.03129e-09 2.19505e-06 -1.47998e-07
-1.71443e-10 1.09748e-06 -7.40313e-08
2.75135e-07 -4.16214e-10 2.69016e-09
2.75917e-07 -1.80719e-10 3.25748e-09
2.75868e-07 -2.32567e-10 -1.10293e-09
-3.14264e-09 2.19456e-06 -1.47369e-07
-3.14112e-10 1.09723e-06 -7.37092e-08
2.80723e-07 -1.89796e-10 3.32996e-09
2.80677e-07 -2.37758e-10 -1.03567e-09
2.79814e-07 -4.30665e-10 2.70129e-09
-3.5158e-09 2.19397e-06 -1.48056e-07
-4.84116e-10 1.09692e-06 -7.4214e-08
2.83456e-07 -4.43363e-10 2.72442e-09
2.84279e-07 -1.96657e-10 3.3604e-09
2.84243e-07 -2.41902e-10 -1.01949e-09
-3.7131e-09 2.19348e-06 -1.47054e-07
-5.66105e-10 1.09667e-06 -7.37844e-08
2.89171e-07 -4.55439e-10 2.86606e-09
2.90002e-07 -2.08598e-10 3.42667e-09
2.89969e-07 -2.50454e-10 -9.81132e-10
-3.50771e-09 2.19288e-06 -1.46931e-07
-5.91878e-10 1.09639e-06 -7.3644e-08
2.92442e-07 -4.62253e-10 2.95555e-09
2.93291e-07 -2.16235e-10 3.46081e-09
2.93263e-07 -2.54534e-10 -9.48022e-10
-3.57163e-09 2.19229e-06 -1.46252e-07