# vtk DataFile Version 3.0
vtk output
ASCII
DATASET POLYDATA
POINTS 37168 float
0.365674 1.64765 -0.100447
0.376138 1.64261 -0.100162
0.344856 1.6478 -0.0999567
0.323908 1.64798 -0.0995636
0.365735 1.63767 -0.0998301
0.355312 1.64273 -0.0998703
0.3762 1.63263 -0.0995083
0.344928 1.63782 -0.0993856
0.334383 1.64289 -0.0995728
0.323995 1.638 -0.0989827
0.313533 1.64308 -0.0990485
0.302877 1.64817 -0.09922
0.365805 1.62769 -0.0992035
0.334467 1.63291 -0.0989695
0.355389 1.63276 -0.0992611
0.302956 1.63818 -0.0986158
0.292323 1.64328 -0.0987549
0.281552 1.64838 -0.0986397
0.365859 1.61771 -0.0985685
0.355443 1.62277 -0.0986507
0.376247 1.62265 -0.0988844
0.345003 1.62784 -0.0987801
0.417607 1.64242 -0.100763
0.407304 1.64746 -0.100901
0.427906 1.64738 -0.101
0.45879 1.64231 -0.100916
0.448504 1.64733 -0.101057
0.469058 1.64729 -0.101072
0.489578 1.64728 -0.100983
0.438195 1.64237 -0.100621
0.386597 1.64756 -0.100357
0.448512 1.63735 -0.100414
0.469057 1.63732 -0.100427
0.489568 1.6373 -0.100341
0.479309 1.6423 -0.100677
0.417629 1.63244 -0.100126
0.407335 1.63748 -0.100267
0.427915 1.63741 -0.100364
0.397113 1.64252 -0.100351
0.458776 1.63234 -0.100285
0.479302 1.63232 -0.10003
0.49977 1.6323 -0.100117
0.427935 1.62743 -0.0997243
0.397148 1.63254 -0.0996978
0.438198 1.6324 -0.0999797
0.386664 1.63758 -0.0997578
0.448508 1.62738 -0.0997876
0.469035 1.62734 -0.0997981
0.489531 1.62733 -0.0997171
0.417649 1.62246 -0.0994993
0.438214 1.62242 -0.0993359
0.407366 1.6275 -0.0996291
0.458762 1.62236 -0.0996578
0.47927 1.62235 -0.0994058
0.407396 1.61752 -0.0989875
0.42795 1.61745 -0.0990921
0.39719 1.62256 -0.0990776
0.386733 1.6276 -0.0991247
0.458766 1.61238 -0.0990122
0.448504 1.6174 -0.0991623
0.469012 1.61736 -0.0991721
0.489489 1.61735 -0.0990965
0.417673 1.61249 -0.0988619
0.43822 1.61244 -0.0986963
0.479245 1.61237 -0.0987782
0.499682 1.61235 -0.0988828
0.177078 1.70478 -0.0996456
0.201573 1.7044 -0.099798
0.189309 1.69959 -0.0996159
0.177327 1.69479 -0.0991015
0.201787 1.69441 -0.0992398
0.189566 1.6896 -0.0990391
0.177616 1.6848 -0.0985213
0.202018 1.68443 -0.0986493
0.247518 1.70372 -0.1011
0.247648 1.69373 -0.100489
0.236517 1.69888 -0.100644
0.25874 1.69859 -0.100748
0.225313 1.70405 -0.100466
0.247792 1.68375 -0.099868
0.23669 1.6889 -0.100025
0.258876 1.68861 -0.100117
0.225493 1.69406 -0.0998876
0.213797 1.69924 -0.0996154
0.247948 1.67377 -0.0992295
0.236851 1.67891 -0.099419
0.259006 1.67862 -0.099481
0.225672 1.68407 -0.0992953
0.259122 1.66864 -0.0988968
0.21401 1.68925 -0.0990359
0.248104 1.66378 -0.0985967
0.237007 1.66893 -0.0988191
0.225846 1.67409 -0.0987017
0.189088 1.70958 -0.100167
0.164802 1.70998 -0.0989777
0.176811 1.71477 -0.100227
0.201332 1.71439 -0.100362
0.150881 1.76514 -0.100166
0.15117 1.75515 -0.0996928
0.18881 1.71956 -0.100794
0.164553 1.71997 -0.0994683
0.201118 1.72438 -0.100938
0.17656 1.72476 -0.100767
0.188576 1.72955 -0.101375
0.164285 1.72996 -0.100031
0.17631 1.73474 -0.101325
0.200876 1.73436 -0.101545
0.188348 1.73954 -0.101911
0.20064 1.74435 -0.102121
0.164014 1.73995 -0.100569
0.188123 1.74953 -0.102452
0.17603 1.74473 -0.101887
0.163762 1.74994 -0.101039
0.175768 1.75472 -0.1024
0.200401 1.75434 -0.102699
0.187883 1.75952 -0.103006
0.163501 1.75993 -0.101545
0.200168 1.76432 -0.103284
0.175493 1.76471 -0.102952
0.151463 1.74516 -0.0991898
0.151815 1.73517 -0.0986319
0.23639 1.70887 -0.101218
0.258617 1.70857 -0.101369
0.21361 1.70922 -0.100224
0.24735 1.7137 -0.101733
0.225123 1.71403 -0.101075
0.236229 1.71885 -0.101832
0.258471 1.71855 -0.10201
0.213394 1.7192 -0.100869
0.258353 1.72854 -0.102622
0.247209 1.72369 -0.102335
0.22497 1.72402 -0.101627
0.213206 1.72919 -0.101484
0.247062 1.73367 -0.102948
0.236104 1.72884 -0.102408
0.213002 1.73917 -0.102069
0.258206 1.73852 -0.103251
0.235952 1.73882 -0.102984
0.22479 1.734 -0.102223
0.246891 1.74365 -0.103575
0.224599 1.74399 -0.102799
0.212782 1.74916 -0.102647
0.258048 1.7485 -0.10389
0.235781 1.74881 -0.103574
0.212576 1.75915 -0.103222
0.246727 1.75364 -0.104187
0.224412 1.75398 -0.10337
0.25791 1.75848 -0.104525
0.235618 1.75879 -0.104166
0.246578 1.76362 -0.104813
0.224242 1.76396 -0.103946
0.137054 1.8103 -0.100212
0.14934 1.81508 -0.102563
0.136746 1.82029 -0.100677
0.149015 1.82506 -0.103087
0.13654 1.83028 -0.101054
0.148693 1.83505 -0.103597
0.136205 1.84027 -0.101517
0.148415 1.84504 -0.104035
0.13585 1.85025 -0.101988
0.148137 1.85503 -0.104445
0.135446 1.86024 -0.102493
0.147814 1.86502 -0.104942
0.135163 1.87023 -0.102921
0.147525 1.875 -0.105421
0.134815 1.88022 -0.103418
0.122918 1.87546 -0.100395
0.123225 1.86547 -0.0999888
0.123511 1.85548 -0.0996165
0.137455 1.80031 -0.0996827
0.1239 1.84548 -0.0991853
0.137727 1.79032 -0.0992614
0.138053 1.78034 -0.098777
0.124348 1.8355 -0.0986673
0.187613 1.7695 -0.103584
0.163196 1.76991 -0.102115
0.149956 1.7951 -0.101619
0.149673 1.80509 -0.102065
0.150573 1.77513 -0.100646
0.1752 1.7747 -0.103519
0.199941 1.77431 -0.1038
0.150277 1.78512 -0.101153
0.187353 1.77949 -0.104159
0.162877 1.7799 -0.10265
0.199703 1.7843 -0.104363
0.175003 1.78469 -0.103993
0.187136 1.78948 -0.104679
0.1626 1.78989 -0.103127
0.199458 1.79428 -0.104931
0.174761 1.79467 -0.104471
0.186883 1.79946 -0.105219
0.162318 1.79988 -0.103656
0.199194 1.80427 -0.105533
0.17451 1.80466 -0.104994
0.16201 1.80987 -0.104201
0.186624 1.80945 -0.10576
0.198945 1.81425 -0.106113
0.174221 1.81465 -0.105545
0.161704 1.81985 -0.104772
0.186328 1.81943 -0.106375
0.212372 1.76913 -0.103753
0.257773 1.76846 -0.10513
0.235437 1.76877 -0.104766
0.246414 1.7736 -0.105426
0.224076 1.77395 -0.104484
0.212156 1.77912 -0.104321
0.257632 1.77845 -0.105722
0.235256 1.77876 -0.105398
0.246254 1.78358 -0.106039
0.223888 1.78393 -0.105077
0.211943 1.78911 -0.104898
0.257481 1.78843 -0.106363
0.23508 1.78874 -0.10596
0.246122 1.79356 -0.106631
0.223699 1.79391 -0.105687
0.211494 1.80908 -0.106067
0.211271 1.81906 -0.106677
0.211737 1.79909 -0.105483
0.257339 1.79841 -0.107
0.234914 1.79872 -0.106553
0.245955 1.80355 -0.10725
0.223478 1.8039 -0.106331
0.2572 1.80839 -0.107622
0.234726 1.80871 -0.10715
0.223293 1.81388 -0.106927
0.245818 1.81353 -0.107846
0.257045 1.81837 -0.10824
0.234552 1.81869 -0.107781
0.245645 1.82351 -0.108467
0.198675 1.82423 -0.106687
0.173968 1.82463 -0.106053
0.16144 1.82984 -0.105288
0.186057 1.82942 -0.106929
0.198427 1.83422 -0.107243
0.173711 1.83462 -0.106575
0.161138 1.83983 -0.10584
0.18578 1.8394 -0.107498
0.198174 1.8442 -0.107813
0.173427 1.8446 -0.107108
0.160865 1.84981 -0.106314
0.185517 1.84939 -0.108052
0.197907 1.85419 -0.108397
0.173138 1.85459 -0.107621
0.160551 1.8598 -0.106815
0.185278 1.85937 -0.108583
0.172858 1.86457 -0.10816
0.197626 1.86417 -0.108993
0.160256 1.86978 -0.10736
0.18504 1.86936 -0.109113
0.197379 1.87415 -0.109542
0.172594 1.87456 -0.108713
0.160006 1.87977 -0.107848
0.184785 1.87934 -0.109648
0.22308 1.82386 -0.107532
0.256905 1.82835 -0.108862
0.234398 1.82867 -0.108369
0.211053 1.82904 -0.107249
0.222892 1.83384 -0.108116
0.245493 1.83349 -0.109072
0.256748 1.83833 -0.109485
0.234246 1.83865 -0.108916
0.210822 1.83903 -0.107761
0.222683 1.84382 -0.10869
0.245328 1.84347 -0.109671
0.210345 1.85899 -0.108922
0.210115 1.86897 -0.109523
0.209906 1.87896 -0.110093
0.256593 1.84831 -0.110105
0.23409 1.84864 -0.10948
0.210582 1.84901 -0.108353
0.245154 1.85345 -0.110283
0.222464 1.85381 -0.109279
0.256439 1.85829 -0.110694
0.233909 1.85862 -0.110063
0.222253 1.86379 -0.109893
0.245023 1.86344 -0.110845
0.256295 1.86827 -0.111296
0.233739 1.8686 -0.110694
0.22208 1.87377 -0.110422
0.244876 1.87342 -0.111442
0.256165 1.87825 -0.111918
0.233558 1.87858 -0.111319
0.313418 1.65306 -0.0996395
0.292194 1.65326 -0.0993176
0.323815 1.65796 -0.100192
0.302739 1.65815 -0.0998144
0.281399 1.65837 -0.0992003
0.31331 1.66304 -0.100244
0.29207 1.66324 -0.0998903
0.323727 1.66794 -0.100817
0.302623 1.66813 -0.100429
0.313232 1.67302 -0.100886
0.291976 1.67322 -0.100535
0.323651 1.67792 -0.101444
0.302503 1.67811 -0.101041
0.313138 1.683 -0.101531
0.291863 1.6832 -0.101142
0.269718 1.70344 -0.101185
0.323585 1.68789 -0.10209
0.302409 1.68809 -0.101687
0.323491 1.69788 -0.102684
0.302292 1.69807 -0.102264
0.31305 1.69298 -0.102152
0.291755 1.69318 -0.101752
0.280854 1.6983 -0.101562
0.312944 1.70296 -0.10274
0.291644 1.70316 -0.102308
0.281012 1.68831 -0.100975
0.26982 1.69346 -0.100561
0.28115 1.67833 -0.100381
0.269997 1.68348 -0.0999191
0.281283 1.66835 -0.0998045
0.270151 1.67349 -0.0993349
0.270344 1.66351 -0.0987733
0.376079 1.65259 -0.100806
0.355238 1.65271 -0.100491
0.334287 1.65287 -0.100177
0.365597 1.65763 -0.101092
0.344771 1.65778 -0.100611
0.376035 1.66257 -0.101449
0.355166 1.66269 -0.101123
0.334197 1.66285 -0.100797
0.365563 1.66761 -0.101724
0.344698 1.66776 -0.101249
0.355123 1.67267 -0.101768
0.376002 1.67254 -0.102114
0.334117 1.67283 -0.101448
0.365534 1.67759 -0.10237
0.344647 1.67774 -0.101898
0.375973 1.68252 -0.102771
0.334054 1.68281 -0.102108
0.355085 1.68265 -0.10244
0.375927 1.6925 -0.103385
0.365485 1.68756 -0.103009
0.355022 1.69263 -0.103048
0.344589 1.68771 -0.102532
0.333989 1.69279 -0.102722
0.365418 1.69754 -0.10364
0.344507 1.6977 -0.103145
0.375861 1.70247 -0.104048
0.354945 1.7026 -0.103683
0.33389 1.70277 -0.103338
0.323404 1.70785 -0.103301
0.302198 1.70805 -0.102861
0.280737 1.70828 -0.102171
0.269584 1.71342 -0.101827
0.312828 1.71294 -0.103371
0.291487 1.71315 -0.102924
0.323314 1.71783 -0.103949
0.302083 1.71803 -0.103476
0.312727 1.72292 -0.104007
0.291383 1.72313 -0.103545
0.280585 1.71826 -0.102774
0.26947 1.7234 -0.102463
0.323224 1.72781 -0.104586
0.301972 1.72801 -0.104098
0.280439 1.72824 -0.103303
0.268977 1.76333 -0.10497
0.26936 1.73338 -0.103082
0.312629 1.73289 -0.104656
0.291255 1.7331 -0.10415
0.269221 1.74337 -0.103717
0.269089 1.75335 -0.104349
0.32315 1.73779 -0.105232
0.301864 1.73799 -0.104711
0.280304 1.73822 -0.1039
0.312542 1.74287 -0.105335
0.291112 1.74308 -0.10477
0.323062 1.74777 -0.105843
[...]
POINT_DATA 37168
VECTORS alpha float
2.18405e-07 -7.59364e-10 5.78358e-09
-2.94338e-08 6.59203e-06 -4.34216e-07
2.15713e-07 -9.75785e-10 5.85037e-09
2.14325e-07 -1.22005e-09 5.5065e-09
2.15068e-07 -7.32484e-10 5.93244e-09
-3.46425e-08 7.71268e-06 -5.01348e-07
-2.90109e-08 6.59335e-06 -4.34763e-07
2.12501e-07 -9.36104e-10 6.16381e-09
-4.17378e-08 8.89438e-06 -5.79137e-07
2.11157e-07 -1.18235e-09 5.74793e-09
-5.95685e-08 1.01945e-05 -6.57406e-07
2.1261e-07 -1.41698e-09 6.81577e-09
2.13701e-07 -7.16491e-10 6.07113e-09
-4.29349e-08 8.89623e-06 -5.80189e-07
-3.44387e-08 7.71412e-06 -5.03204e-07
2.09528e-07 -1.37844e-09 6.87439e-09
-6.22869e-08 1.16807e-05 -7.15382e-07
2.1163e-07 -1.62195e-09 7.18389e-09
2.11212e-07 -6.98001e-10 6.09496e-09
-3.46412e-08 7.71574e-06 -5.03348e-07
-2.66425e-08 6.59464e-06 -4.36102e-07
2.11247e-07 -9.16518e-10 6.3172e-09
-1.3061e-08 4.39969e-06 -2.95353e-07
2.19761e-07 -5.19656e-10 3.20235e-09
2.21433e-07 -4.24385e-10 3.13662e-09
-4.11555e-09 2.20195e-06 -1.48251e-07
2.22266e-07 -3.14108e-10 2.46585e-09
2.22969e-07 -1.40776e-10 2.79033e-09
2.22952e-07 -1.97812e-10 -8.51005e-10
-8.08928e-09 3.30205e-06 -2.23454e-07
2.19795e-07 -7.17118e-10 2.916e-09
2.18653e-07 -3.03114e-10 2.45232e-09
2.19322e-07 -1.36315e-10 2.73139e-09
2.193e-07 -1.9631e-10 -8.95499e-10
3.29073e-11 1.1009e-06 -7.43459e-08
-1.25059e-08 4.40062e-06 -2.94532e-07
2.16191e-07 -5.00712e-10 3.25121e-09
2.17793e-07 -4.10604e-10 3.11714e-09
-9.19329e-09 5.49435e-06 -3.65445e-07
-3.88468e-09 2.20237e-06 -1.48431e-07
3.8095e-11 1.10112e-06 -7.43475e-08
-4.74267e-15 -7.93788e-12 5.36772e-13
2.16181e-07 -4.00533e-10 3.12853e-09
-1.00655e-08 5.49546e-06 -3.65189e-07
-7.84676e-09 3.30272e-06 -2.23351e-07
2.1624e-07 -6.84189e-10 3.10928e-09
2.16914e-07 -2.91158e-10 2.49083e-09
2.17556e-07 -1.31303e-10 2.68914e-09
2.17527e-07 -1.94977e-10 -9.69791e-10
-1.193e-08 4.40143e-06 -2.95903e-07
-7.54766e-09 3.30336e-06 -2.23972e-07
2.14533e-07 -4.88541e-10 3.2565e-09
-3.42463e-09 2.2028e-06 -1.48477e-07
2.70586e-10 1.10133e-06 -7.43992e-08
2.11766e-07 -4.74125e-10 3.25332e-09
2.13246e-07 -3.88854e-10 3.10671e-09
-9.33907e-09 5.49651e-06 -3.66071e-07
2.14664e-07 -6.68507e-10 3.15183e-09
-3.24025e-09 2.20321e-06 -1.48465e-07
2.13914e-07 -2.79328e-10 2.49808e-09
2.14515e-07 -1.26165e-10 2.62514e-09
2.14473e-07 -1.93375e-10 -1.04318e-09
-1.14268e-08 4.40225e-06 -2.95864e-07
-7.01584e-09 3.30397e-06 -2.23921e-07
4.38413e-10 1.10153e-06 -7.4431e-08
-8.02988e-15 -9.50053e-12 6.42366e-13
-4.56103e-07 2.03691e-05 -1.16311e-06
-3.53529e-07 1.91464e-05 -1.11712e-06
2.41181e-07 -2.81286e-09 1.41491e-08
-4.50368e-07 2.03729e-05 -1.16334e-06
-3.46921e-07 1.91499e-05 -1.12293e-06
2.35652e-07 -2.73867e-09 1.39105e-08
-4.51309e-07 2.03772e-05 -1.14912e-06
-3.45973e-07 1.91537e-05 -1.11925e-06
-1.56727e-07 1.53115e-05 -9.25838e-07
-1.53716e-07 1.53149e-05 -9.17708e-07
2.34119e-07 -2.40658e-09 9.6864e-09
2.3496e-07 -2.20087e-09 8.27116e-09
-2.23787e-07 1.73266e-05 -1.03771e-06
-1.49575e-07 1.53182e-05 -9.09969e-07
2.28356e-07 -2.33632e-09 9.53421e-09
2.29298e-07 -2.13394e-09 8.18792e-09
-2.21368e-07 1.73299e-05 -1.04374e-06
2.37663e-07 -2.66248e-09 1.01589e-08
-1.55946e-07 1.5321e-05 -9.11054e-07
2.15003e-07 -2.19245e-09 9.08186e-09
2.1637e-07 -2.00327e-09 7.82708e-09
-2.19281e-07 1.73334e-05 -1.04029e-06
2.13721e-07 -1.95891e-09 7.9539e-09
2.31924e-07 -2.58556e-09 1.01617e-08
-1.53009e-07 1.5324e-05 -9.15183e-07
2.12153e-07 -2.14702e-09 9.20468e-09
-2.30741e-07 1.73365e-05 -1.04599e-06
2.41912e-07 -2.83628e-09 1.40156e-08
2.41859e-07 -2.9022e-09 8.22842e-09
-4.26958e-07 2.03644e-05 -1.14621e-06
-3.19551e-07 1.91425e-05 -1.08967e-06
-5.38229e-07 2.05483e-05 -1.06663e-06
-5.33397e-07 2.0553e-05 -1.06378e-06
2.51588e-07 -2.94983e-09 1.46319e-08
2.51354e-07 -3.02166e-09 8.16827e-09
-3.22228e-07 1.91385e-05 -1.09292e-06
-4.40418e-07 2.03605e-05 -1.15815e-06
2.53435e-07 -2.98611e-09 1.44582e-08
2.53962e-07 -3.0632e-09 8.0471e-09
-4.43132e-07 2.03563e-05 -1.1605e-06
-3.16359e-07 1.91346e-05 -1.08647e-06
2.53671e-07 -3.0046e-09 1.40155e-08
-3.29373e-07 1.91309e-05 -1.08827e-06
2.54293e-07 -3.0799e-09 7.81184e-09
2.56649e-07 -3.05301e-09 1.39531e-08
-4.61796e-07 2.03526e-05 -1.17441e-06
2.57362e-07 -3.12781e-09 7.58357e-09
-4.52392e-07 2.03481e-05 -1.17157e-06
-3.30761e-07 1.91267e-05 -1.08474e-06
2.57303e-07 -3.07375e-09 1.36601e-08
2.57746e-07 -3.1498e-09 7.15854e-09
-3.03962e-07 1.91227e-05 -1.07799e-06
-4.35837e-07 2.03437e-05 -1.15963e-06
-5.3313e-07 2.0557e-05 -1.07686e-06
-4.98926e-07 2.05616e-05 -1.05339e-06
2.34678e-07 -2.43297e-09 9.41017e-09
2.35355e-07 -2.21858e-09 8.23612e-09
2.38328e-07 -2.6847e-09 1.01571e-08
-1.4541e-07 1.5309e-05 -9.07875e-07
-2.0317e-07 1.73229e-05 -1.02212e-06
2.4393e-07 -2.54087e-09 9.49726e-09
2.4448e-07 -2.3148e-09 8.46861e-09
2.47713e-07 -2.80354e-09 1.04961e-08
2.45791e-07 -2.33796e-09 8.36556e-09
-1.46378e-07 1.53055e-05 -9.13788e-07
-2.03982e-07 1.73192e-05 -1.01333e-06
2.4909e-07 -2.83307e-09 1.03619e-08
-1.49425e-07 1.53022e-05 -9.14821e-07
2.45138e-07 -2.56978e-09 9.08014e-09
2.49409e-07 -2.85356e-09 1.0195e-08
2.46124e-07 -2.3575e-09 8.2522e-09
2.4553e-07 -2.59461e-09 8.91967e-09
-1.98707e-07 1.73157e-05 -1.0042e-06
-1.51125e-07 1.52991e-05 -9.05154e-07
-2.03257e-07 1.73126e-05 -9.94305e-07
2.52424e-07 -2.89854e-09 1.03044e-08
2.49235e-07 -2.39926e-09 8.28726e-09
2.48573e-07 -2.64256e-09 8.86895e-09
2.53197e-07 -2.9232e-09 1.00548e-08
-1.55386e-07 1.52955e-05 -9.07824e-07
-2.03167e-07 1.7309e-05 -1.00082e-06
2.50501e-07 -2.4209e-09 8.29077e-09
2.4963e-07 -2.66738e-09 8.84465e-09
-1.39112e-07 1.52927e-05 -8.99406e-07
-1.86135e-07 1.73057e-05 -1.00665e-06
2.77146e-07 -3.54329e-09 -1.56457e-08
-5.84569e-07 2.05249e-05 -1.05922e-06
2.83093e-07 -3.64248e-09 -1.67386e-08
-5.68395e-07 2.05198e-05 -1.05675e-06
2.85012e-07 -3.69202e-09 -1.80183e-08
-5.86016e-07 2.05159e-05 -1.06706e-06
2.84647e-07 -3.69939e-09 -1.85945e-08
-5.83965e-07 2.05118e-05 -1.06016e-06
2.93387e-07 -3.8342e-09 -2.01062e-08
-5.74359e-07 2.05059e-05 -1.03514e-06
2.96901e-07 -3.89548e-09 -2.0952e-08
-5.72485e-07 2.05008e-05 -1.02292e-06
2.973e-07 -3.93071e-09 -2.17802e-08
-5.45497e-07 2.04956e-05 -9.94994e-07
3.11746e-07 -4.14418e-09 -2.3465e-08
-6.55698e-07 1.9485e-05 -8.90667e-07
-6.61216e-07 1.94898e-05 -8.97559e-07
-6.7668e-07 1.94941e-05 -9.35386e-07
2.7333e-07 -3.47602e-09 -1.47214e-08
-6.92303e-07 1.94989e-05 -9.75635e-07
2.69234e-07 -3.40714e-09 -1.37385e-08
2.6837e-07 -3.37451e-09 -1.2806e-08
-6.45118e-07 1.95031e-05 -9.3303e-07
2.74974e-07 -3.29051e-09 1.44583e-08
2.75933e-07 -3.37841e-09 7.6307e-09
-5.58236e-07 2.0535e-05 -1.04946e-06
-5.50701e-07 2.05297e-05 -1.03754e-06
-5.36159e-07 2.05443e-05 -1.0468e-06
-3.9158e-07 2.03382e-05 -1.12655e-06
-2.98397e-07 1.9118e-05 -1.07456e-06
-5.44857e-07 2.05395e-05 -1.0448e-06
2.74273e-07 -3.29328e-09 1.40352e-08
2.75494e-07 -3.37727e-09 7.48722e-09
-2.93796e-07 1.91135e-05 -1.07198e-06
-3.85818e-07 2.03332e-05 -1.1169e-06
2.75772e-07 -3.32716e-09 1.37947e-08
2.77066e-07 -3.4013e-09 7.26475e-09
-3.01751e-07 1.9109e-05 -1.07476e-06
-3.89817e-07 2.03288e-05 -1.12285e-06
2.80465e-07 -3.3982e-09 1.39494e-08
2.8181e-07 -3.46562e-09 7.30799e-09
-2.98003e-07 1.91045e-05 -1.07328e-06
-3.91057e-07 2.03237e-05 -1.125e-06
2.85981e-07 -3.5276e-09 6.81826e-09
2.84488e-07 -3.45012e-09 1.40003e-08
-3.16647e-07 1.91001e-05 -1.08991e-06
-4.05308e-07 2.03187e-05 -1.14016e-06
2.92459e-07 -3.61967e-09 6.47379e-09
2.91069e-07 -3.52577e-09 1.41562e-08
2.70177e-07 -3.13416e-09 1.06207e-08
2.66115e-07 -2.59362e-09 8.53654e-09
2.6576e-07 -2.85731e-09 9.2122e-09
-1.31147e-07 1.52895e-05 -8.91671e-07
-1.86924e-07 1.73016e-05 -1.01609e-06
2.697e-07 -3.13851e-09 1.03756e-08
2.65862e-07 -2.60475e-09 8.31073e-09
2.65398e-07 -2.85977e-09 8.85984e-09
-1.29652e-07 1.52863e-05 -8.90761e-07
-1.85815e-07 1.72979e-05 -1.01488e-06
2.71239e-07 -3.16683e-09 1.02777e-08
2.67509e-07 -2.63337e-09 8.23532e-09
2.67052e-07 -2.89722e-09 8.64915e-09
-1.25725e-07 1.52824e-05 -8.95933e-07
-1.76747e-07 1.72937e-05 -1.00925e-06
2.79724e-07 -3.28477e-09 1.04696e-08
2.85987e-07 -3.36143e-09 1.06525e-08
2.75744e-07 -3.23101e-09 1.03286e-08
2.71964e-07 -2.68804e-09 8.26548e-09
2.71559e-07 -2.96408e-09 8.61299e-09
-1.30142e-07 1.52786e-05 -8.95286e-07
-1.77422e-07 1.72896e-05 -9.96783e-07
2.75615e-07 -2.7431e-09 8.2164e-09
2.75424e-07 -3.01903e-09 8.64818e-09
-1.82328e-07 1.7285e-05 -1.00386e-06
-1.24498e-07 1.52755e-05 -8.89408e-07
2.81496e-07 -2.81341e-09 8.26483e-09
2.81487e-07 -3.08696e-09 8.7909e-09
-1.24812e-07 1.5272e-05 -8.82733e-07
-3.00543e-07 1.90949e-05 -1.08008e-06
-3.79849e-07 2.03139e-05 -1.12415e-06
2.95367e-07 -3.68305e-09 5.45732e-09
2.94109e-07 -3.5826e-09 1.38022e-08
-2.98516e-07 1.90904e-05 -1.0763e-06
-3.85795e-07 2.03094e-05 -1.11993e-06
2.95352e-07 -3.69478e-09 4.94343e-09
2.94107e-07 -3.5932e-09 1.35037e-08
-2.94097e-07 1.9086e-05 -1.07155e-06
-3.61213e-07 2.03049e-05 -1.10286e-06
3.04571e-07 -3.83214e-09 4.31183e-09
3.03276e-07 -3.72264e-09 1.35884e-08
-2.9516e-07 1.90823e-05 -1.05259e-06
-3.38317e-07 2.02993e-05 -1.06127e-06
3.08128e-07 -3.90005e-09 3.48695e-09
3.06801e-07 -3.78674e-09 1.3501e-08
-3.30529e-07 2.02938e-05 -1.05211e-06
-2.92621e-07 1.90773e-05 -1.0392e-06
3.08783e-07 -3.93448e-09 2.73837e-09
3.075e-07 -3.81215e-09 1.30279e-08
-2.69694e-07 1.90722e-05 -1.02559e-06
-3.22947e-07 2.02892e-05 -1.05341e-06
3.23258e-07 -4.14443e-09 1.62395e-09
3.22217e-07 -4.00559e-09 1.32112e-08
-1.78611e-07 1.72813e-05 -9.94317e-07
2.84431e-07 -2.86164e-09 8.06242e-09
2.84546e-07 -3.14143e-09 8.48489e-09
2.89081e-07 -3.41631e-09 1.04837e-08
-1.75913e-07 1.7277e-05 -9.87319e-07
-1.1767e-07 1.52679e-05 -8.78334e-07
2.84474e-07 -2.87206e-09 7.96047e-09
2.84592e-07 -3.16254e-09 8.12045e-09
2.89267e-07 -3.42994e-09 1.0339e-08
-1.78576e-07 1.72728e-05 -9.89708e-07
-1.1665e-07 1.52641e-05 -8.72988e-07
3.02038e-07 -3.6133e-09 1.05398e-08
3.02881e-07 -3.6373e-09 1.02869e-08
3.17367e-07 -3.82782e-09 1.04346e-08
2.9312e-07 -2.97973e-09 7.97097e-09
2.93514e-07 -3.28589e-09 8.03449e-09
2.98328e-07 -3.55438e-09 1.05327e-08
-1.18796e-07 1.52607e-05 -8.59858e-07
-1.8348e-07 1.72688e-05 -9.84625e-07
2.96649e-07 -3.03383e-09 7.84527e-09
2.97119e-07 -3.34469e-09 7.90924e-09
-1.81781e-07 1.7264e-05 -9.78948e-07
-1.1911e-07 1.52564e-05 -8.56842e-07
2.97271e-07 -3.06344e-09 7.46167e-09
2.98014e-07 -3.36586e-09 7.69735e-09
-1.65756e-07 1.72595e-05 -9.65677e-07
-1.07854e-07 1.52524e-05 -8.57283e-07
3.10889e-07 -3.21774e-09 7.64373e-09
3.11876e-07 -3.54437e-09 7.65414e-09
-5.91269e-08 1.01923e-05 -6.57207e-07
-6.08025e-08 1.16783e-05 -7.19394e-07
2.14135e-07 -1.22573e-09 5.47921e-09
2.12375e-07 -1.42302e-09 6.68394e-09
2.11208e-07 -1.63026e-09 7.01659e-09
-5.64294e-08 1.01901e-05 -6.59004e-07
-5.34516e-08 1.16758e-05 -7.22644e-07
2.17321e-07 -1.24788e-09 5.57484e-09
2.15608e-07 -1.45245e-09 6.72685e-09
-5.52224e-08 1.01879e-05 -6.6064e-07
-4.99916e-08 1.16732e-05 -7.30795e-07
2.19985e-07 -1.26856e-09 5.65186e-09
2.18304e-07 -1.47877e-09 6.74008e-09
-5.18577e-08 1.01856e-05 -6.59231e-07
-3.97327e-08 1.16711e-05 -7.24228e-07
-7.89028e-08 1.33814e-05 -8.23006e-07
2.31165e-07 -1.33844e-09 5.97232e-09
2.30171e-07 -1.56502e-09 7.0682e-09
2.36233e-07 -1.38701e-09 5.82659e-09
2.35481e-07 -1.61988e-09 6.94561e-09
-5.21029e-08 1.01838e-05 -6.59696e-07
-3.80416e-08 1.16688e-05 -7.29115e-07
2.35078e-07 -1.86196e-09 7.28042e-09
-5.6672e-08 1.01815e-05 -6.67238e-07
-4.20811e-08 1.16662e-05 -7.33417e-07
2.29612e-07 -1.80231e-09 7.30606e-09
-7.46978e-08 1.33847e-05 -8.1035e-07
2.1718e-07 -1.69498e-09 7.03787e-09
-7.31713e-08 1.33874e-05 -8.21176e-07
2.14478e-07 -1.66373e-09 7.12052e-09
-8.01707e-08 1.33901e-05 -8.12687e-07
-7.82851e-08 1.33926e-05 -8.12021e-07
-2.89426e-08 6.5905e-06 -4.35769e-07
-3.24238e-08 7.71091e-06 -5.02405e-07
-4.08785e-08 8.89241e-06 -5.79446e-07
2.18547e-07 -7.6881e-10 5.64545e-09
2.15707e-07 -9.81572e-10 5.81337e-09
-2.83635e-08 6.58901e-06 -4.37065e-07
-3.09252e-08 7.70919e-06 -5.04187e-07
-3.81667e-08 8.89031e-06 -5.83088e-07
2.21712e-07 -7.86981e-10 5.74364e-09
2.18922e-07 -1.00234e-09 5.85607e-09
-3.07803e-08 7.70746e-06 -5.04156e-07
-2.82957e-08 6.58748e-06 -4.36773e-07
-3.8504e-08 8.8884e-06 -5.82412e-07
2.24451e-07 -7.98376e-10 5.89379e-09
2.21635e-07 -1.01905e-09 5.95397e-09
-2.78933e-08 6.58586e-06 -4.36831e-07
-3.63669e-08 8.8862e-06 -5.82216e-07
-2.78149e-08 7.70547e-06 -5.05236e-07
-2.93543e-08 6.58477e-06 -4.33509e-07
2.34195e-07 -8.43285e-10 6.10163e-09
-2.91599e-08 7.70424e-06 -5.02104e-07
2.32066e-07 -1.07892e-09 6.12609e-09
-3.62306e-08 8.88463e-06 -5.79276e-07
2.38862e-07 -8.71289e-10 6.04731e-09
2.3693e-07 -1.11649e-09 6.03192e-09
-3.00049e-08 6.58331e-06 -4.38033e-07
-2.97219e-08 7.7026e-06 -5.07254e-07
-3.80297e-08 8.88266e-06 -5.85391e-07
2.35904e-07 -1.39885e-09 5.73675e-09
2.35356e-07 -1.63826e-09 6.73961e-09
2.35201e-07 -1.88009e-09 7.15215e-09
-6.91754e-08 1.33793e-05 -8.07111e-07
-5.22436e-08 1.01801e-05 -6.62512e-07
-3.57641e-08 1.16646e-05 -7.19555e-07
2.44426e-07 -1.45453e-09 5.94839e-09
2.44175e-07 -1.7097e-09 6.85514e-09
-5.43492e-08 1.0178e-05 -6.70234e-07
-3.51777e-08 1.16619e-05 -7.2217e-07
2.4419e-07 -1.96203e-09 7.26523e-09
-7.17962e-08 1.33762e-05 -8.06954e-07
2.4783e-07 -1.48065e-09 5.99066e-09
2.46591e-07 -1.73545e-09 6.793e-09
2.45932e-07 -1.9938e-09 7.02103e-09
-6.7959e-08 1.33645e-05 -8.05366e-07
-7.20669e-08 1.33735e-05 -8.06075e-07
-5.23348e-08 1.01758e-05 -6.68956e-07
-3.21717e-08 1.16595e-05 -7.18059e-07
-7.47936e-08 1.33705e-05 -8.04229e-07
-7.39272e-08 1.33672e-05 -8.07594e-07
2.48415e-07 -1.49254e-09 5.99893e-09
2.47109e-07 -1.75309e-09 6.66302e-09
2.46242e-07 -2.01976e-09 6.86008e-09
-5.25435e-08 1.01732e-05 -6.73226e-07
-3.44366e-08 1.16567e-05 -7.21504e-07
2.51882e-07 -1.52904e-09 5.88415e-09
2.50424e-07 -1.78558e-09 6.62697e-09
2.49467e-07 -2.06073e-09 6.7996e-09
-5.27573e-08 1.01707e-05 -6.70192e-07
-3.48544e-08 1.1654e-05 -7.1817e-07
2.53855e-07 -1.55206e-09 5.78828e-09
2.52049e-07 -1.81383e-09 6.36346e-09
2.51033e-07 -2.08044e-09 6.75537e-09
-5.00875e-08 1.01685e-05 -6.64365e-07
-3.16187e-08 1.16516e-05 -7.19039e-07
2.38082e-07 -8.84911e-10 5.82372e-09
2.36337e-07 -1.12884e-09 5.85294e-09
-2.94297e-08 6.58223e-06 -4.36886e-07
-2.70137e-08 7.70131e-06 -5.07641e-07
-3.57815e-08 8.88111e-06 -5.85335e-07
2.46103e-07 -9.21016e-10 6.04145e-09
2.44614e-07 -1.17638e-09 6.01817e-09
-2.94411e-08 6.58122e-06 -4.35696e-07
-2.68969e-08 7.70016e-06 -5.07517e-07
-3.50553e-08 8.87958e-06 -5.86981e-07
2.51858e-07 -9.45162e-10 6.27285e-09
2.49222e-07 -1.20651e-09 6.07741e-09
-2.9363e-08 6.57972e-06 -4.33805e-07
-2.57785e-08 7.69837e-06 -5.07502e-07
-3.27268e-08 8.87738e-06 -5.88086e-07
2.52476e-07 -9.60674e-10 6.17528e-09
2.49798e-07 -1.22213e-09 5.97121e-09
-3.03999e-08 6.57788e-06 -4.36358e-07
-2.5135e-08 7.6963e-06 -5.10587e-07
-3.33614e-08 8.87512e-06 -5.9112e-07
2.56277e-07 -9.85762e-10 6.19752e-09
2.53407e-07 -1.25667e-09 5.84639e-09
-2.9813e-08 6.5762e-06 -4.33895e-07
-2.5085e-08 7.69441e-06 -5.0855e-07
-3.29861e-08 8.87287e-06 -5.90648e-07
2.58803e-07 -1.00782e-09 6.09288e-09
2.55589e-07 -1.2767e-09 5.83848e-09
-3.02175e-08 6.5744e-06 -4.32866e-07
-2.43179e-08 7.69231e-06 -5.0852e-07
-3.14393e-08 8.87052e-06 -5.90554e-07
-1.32002e-08 4.39867e-06 -2.96494e-07
-8.55121e-09 3.30133e-06 -2.23808e-07
-9.07131e-09 5.49311e-06 -3.66454e-07
2.21941e-07 -4.30053e-10 3.13264e-09
2.20215e-07 -5.28051e-10 3.1646e-09
2.20082e-07 -7.22903e-10 2.95354e-09
-1.23208e-08 4.39766e-06 -2.96399e-07
-8.4269e-09 3.30059e-06 -2.23633e-07
-7.46634e-09 5.49186e-06 -3.67977e-07
2.23662e-07 -5.39837e-10 3.19811e-09
2.25425e-07 -4.38574e-10 3.16625e-09
2.23498e-07 -7.37598e-10 3.01058e-09
-1.17462e-08 4.39676e-06 -2.94744e-07
-8.23316e-09 3.29991e-06 -2.22318e-07
-5.93233e-09 5.49066e-06 -3.67248e-07
2.28372e-07 -4.49319e-10 3.17903e-09
2.26483e-07 -5.49491e-10 3.27507e-09
2.26413e-07 -7.48434e-10 3.07377e-09
-1.13504e-08 4.39564e-06 -2.96013e-07
-4.12341e-09 5.48937e-06 -3.66546e-07
-8.02976e-09 3.29906e-06 -2.23249e-07
-1.15406e-08 4.39486e-06 -2.93961e-07
-8.41529e-09 3.29847e-06 -2.21621e-07
2.34983e-07 -5.8514e-10 3.23903e-09
2.36342e-07 -4.67238e-10 3.32131e-09
-3.2385e-09 5.48839e-06 -3.64416e-07
2.35517e-07 -7.88161e-10 3.13595e-09
2.39481e-07 -6.03604e-10 3.31054e-09
2.40783e-07 -4.82774e-10 3.37742e-09
2.40102e-07 -8.06032e-10 3.25472e-09
-1.22269e-08 4.39385e-06 -2.97091e-07
-9.1297e-09 3.29774e-06 -2.23449e-07
-4.05985e-09 5.48711e-06 -3.6848e-07
-4.23399e-09 2.20147e-06 -1.48549e-07
-6.49161e-11 1.10067e-06 -7.45164e-08
2.22835e-07 -3.18654e-10 2.48273e-09
2.23563e-07 -1.43926e-10 2.81063e-09
2.23555e-07 -2.00352e-10 -8.39149e-10
-4.11047e-09 2.20099e-06 -1.48245e-07
-1.19667e-10 1.10043e-06 -7.43863e-08
2.26377e-07 -3.22845e-10 2.55305e-09
2.27133e-07 -1.4602e-10 2.86091e-09
2.27131e-07 -2.02598e-10 -8.49279e-10
-3.88758e-09 2.20051e-06 -1.4776e-07
-1.50455e-10 1.1002e-06 -7.40434e-08
1.11625e-14 -9.44906e-12 6.37085e-13
2.29379e-07 -3.30174e-10 2.59808e-09
2.30155e-07 -1.5012e-10 2.90478e-09
2.30155e-07 -2.06339e-10 -8.52418e-10
2.37679e-07 -1.57691e-10 3.01916e-09
-3.83039e-09 2.19996e-06 -1.48488e-07
-1.78078e-10 1.09993e-06 -7.43243e-08
-2.48513e-15 -8.64756e-12 5.84855e-13
2.37019e-07 -3.43743e-10 2.70404e-09
2.37488e-07 -2.12133e-10 -8.66277e-10
-4.04814e-09 2.19956e-06 -1.47532e-07
-3.15851e-10 1.09972e-06 -7.39232e-08
2.4146e-07 -3.55099e-10 2.75905e-09
2.42045e-07 -1.6264e-10 3.07088e-09
2.41939e-07 -2.18092e-10 -8.73659e-10
-4.13901e-09 2.19906e-06 -1.48738e-07
-3.71965e-10 1.09947e-06 -7.4505e-08
4.0675e-16 -8.57186e-12 5.81281e-13
2.40429e-07 -2.15096e-10 -7.37711e-10
2.38393e-07 -6.11609e-10 3.227e-09
2.39526e-07 -4.87259e-10 3.33267e-09
2.39039e-07 -8.09796e-10 3.22157e-09
-1.15776e-08 4.3931e-06 -2.95636e-07
-8.86341e-09 3.29714e-06 -2.22497e-07
-3.31015e-09 5.48616e-06 -3.67592e-07
2.46841e-07 -8.39315e-10 3.39876e-09
2.46035e-07 -6.33311e-10 3.32372e-09
2.47008e-07 -5.03759e-10 3.43107e-09
-1.09792e-08 4.39243e-06 -2.95536e-07
-9.1699e-09 3.29661e-06 -2.22665e-07
-2.96297e-09 5.4854e-06 -3.66592e-07
2.53784e-07 -8.60532e-10 3.63955e-09
2.55672e-07 -5.23563e-10 3.55399e-09
2.53864e-07 -6.55143e-10 3.44451e-09
-1.04426e-08 4.39149e-06 -2.93564e-07
-2.47047e-09 5.48419e-06 -3.64061e-07
-8.83506e-09 3.29587e-06 -2.21662e-07
2.54475e-07 -8.71166e-10 3.62949e-09
2.54722e-07 -6.65699e-10 3.39181e-09
2.56455e-07 -5.3135e-10 3.50368e-09
-1.08532e-08 4.39032e-06 -2.94208e-07
-9.4216e-09 3.29501e-06 -2.22147e-07
-3.33053e-09 5.48262e-06 -3.65441e-07
2.58447e-07 -8.89212e-10 3.76067e-09
2.60753e-07 -5.46071e-10 3.56666e-09
2.58898e-07 -6.85983e-10 3.41116e-09
-1.00128e-08 4.38916e-06 -2.93753e-07
-9.43095e-09 3.29419e-06 -2.21466e-07
-3.11263e-09 5.48127e-06 -3.63288e-07
2.61261e-07 -9.06583e-10 3.78548e-09
2.61958e-07 -7.06359e-10 3.37412e-09
2.64014e-07 -5.61575e-10 3.57952e-09
-1.01624e-08 4.38793e-06 -2.93669e-07
-9.83175e-09 3.2933e-06 -2.21291e-07
-3.77963e-09 5.47969e-06 -3.62608e-07
2.40085e-07 -3.58426e-10 2.76227e-09
2.40591e-07 -1.64236e-10 3.1148e-09
-4.00244e-09 2.19867e-06 -1.47906e-07
-4.19516e-10 1.09927e-06 -7.40545e-08
2.47429e-07 -3.74474e-10 2.78382e-09
2.4786e-07 -1.70408e-10 3.2004e-09
2.47651e-07 -2.24044e-10 -8.03758e-10
-3.82082e-09 2.19829e-06 -1.48211e-07
-4.77567e-10 1.09908e-06 -7.4143e-08
2.56569e-07 -3.89987e-10 2.89747e-09
2.57287e-07 -1.78428e-10 3.32394e-09
2.57191e-07 -2.32706e-10 -8.21321e-10
-3.70841e-09 2.19783e-06 -1.47336e-07
-4.96391e-10 1.09885e-06 -7.37163e-08
2.5824e-07 -1.8146e-10 3.34922e-09
2.58145e-07 -2.33194e-10 -7.79179e-10
2.57389e-07 -3.93927e-10 2.89358e-09
-3.94036e-09 2.19725e-06 -1.47844e-07
-6.04497e-10 1.09856e-06 -7.40397e-08
2.61779e-07 -4.08974e-10 2.92012e-09
2.62585e-07 -1.88807e-10 3.40445e-09
2.62513e-07 -2.40759e-10 -8.03726e-10
-3.89755e-09 2.1967e-06 -1.47622e-07
-6.07625e-10 1.09829e-06 -7.38654e-08
2.65191e-07 -4.21506e-10 2.96492e-09
2.66091e-07 -1.97458e-10 3.46464e-09
2.6606e-07 -2.47002e-10 -7.58323e-10
-3.87588e-09 2.19611e-06 -1.47507e-07