# vtk DataFile Version 3.0
vtk output
ASCII
DATASET POLYDATA
POINTS 32926 float
0.283177 1.45848 -0.0865478
0.377075 1.45279 -0.0881141
0.366733 1.45783 -0.0882138
0.387371 1.45774 -0.0882937
0.325238 1.4581 -0.0877229
0.346021 1.45798 -0.0876409
0.335619 1.45304 -0.0875116
0.377123 1.44281 -0.0874722
0.366785 1.44785 -0.0875859
0.387414 1.44777 -0.0876618
0.356451 1.45291 -0.0875921
0.325339 1.44812 -0.0871035
0.346093 1.448 -0.087004
0.31492 1.4532 -0.0870161
0.30434 1.45829 -0.0869552
0.387457 1.43779 -0.0870085
0.335707 1.44307 -0.0868758
0.377154 1.43283 -0.0868611
0.366835 1.43788 -0.0869569
0.356516 1.44294 -0.0869607
0.293829 1.45339 -0.0862876
0.325437 1.43815 -0.0864794
0.315021 1.44322 -0.0864313
0.304459 1.4483 -0.0863945
0.34617 1.43802 -0.0863862
0.366875 1.4279 -0.0863141
0.387485 1.42782 -0.0863656
0.356562 1.43296 -0.0863342
0.428458 1.4576 -0.0885128
0.448913 1.45756 -0.0884417
0.469387 1.45752 -0.0885008
0.489831 1.45751 -0.0884733
0.418219 1.45264 -0.0882607
0.438678 1.45259 -0.0881811
0.459148 1.45254 -0.0883022
0.479601 1.45253 -0.0881417
0.499987 1.45251 -0.0882572
0.408001 1.45767 -0.0883205
0.397691 1.45272 -0.087863
0.428472 1.44762 -0.0878708
0.448909 1.44759 -0.0877977
0.469366 1.44755 -0.0878754
0.489793 1.44753 -0.0878568
0.418236 1.44266 -0.0876327
0.438673 1.44262 -0.0875641
0.459127 1.44257 -0.0877004
0.479562 1.44256 -0.087543
0.499934 1.44254 -0.0876672
0.408022 1.4477 -0.0877105
0.397729 1.44275 -0.087221
0.418241 1.43268 -0.0870095
0.408045 1.43772 -0.0870931
0.42847 1.43765 -0.0872696
0.448895 1.43761 -0.0871947
0.459124 1.43259 -0.0870741
0.469336 1.43758 -0.0872876
0.48975 1.43756 -0.0872705
0.438664 1.43264 -0.0869314
0.479527 1.43258 -0.0869264
0.418251 1.42271 -0.0863746
0.397765 1.43277 -0.0866076
0.40805 1.42775 -0.0864841
0.428466 1.42768 -0.0866262
0.459105 1.42262 -0.0864524
0.448879 1.42764 -0.0865555
0.469304 1.4276 -0.0866587
0.489702 1.42759 -0.0866503
0.18147 1.5546 -0.0908816
0.169444 1.55977 -0.0903795
0.181717 1.54461 -0.0902724
0.169718 1.54979 -0.0897922
0.181955 1.53463 -0.0896647
0.169992 1.5398 -0.0891837
0.182207 1.52465 -0.0890561
0.157703 1.55498 -0.0886605
0.182447 1.51466 -0.0884704
0.170289 1.52982 -0.0885925
0.170507 1.51983 -0.0881233
0.157986 1.54499 -0.0881045
0.182695 1.50468 -0.0878358
0.17076 1.50984 -0.0875556
0.158238 1.535 -0.0876261
0.145799 1.56017 -0.0874548
0.18287 1.49469 -0.0873241
0.170981 1.49986 -0.0870597
0.158502 1.52501 -0.0871383
0.145988 1.55018 -0.0870142
0.183105 1.48471 -0.086735
0.171219 1.48987 -0.0865218
0.158773 1.51502 -0.0866363
0.146301 1.5402 -0.0864366
0.159013 1.50503 -0.0862187
0.194095 1.5095 -0.0884124
0.239758 1.50889 -0.0889879
0.217314 1.50918 -0.0885716
0.239898 1.49891 -0.088361
0.228859 1.50404 -0.0884385
0.205617 1.50434 -0.0882768
0.194291 1.49952 -0.0878026
0.228995 1.49406 -0.0878452
0.217497 1.4992 -0.0879633
0.240056 1.48893 -0.0877386
0.205824 1.49436 -0.0876932
0.229184 1.48408 -0.0872165
0.194539 1.48953 -0.0872197
0.217701 1.48922 -0.0873532
0.240214 1.47895 -0.0871003
0.206068 1.48438 -0.0870361
0.229345 1.4741 -0.0865877
0.194714 1.47955 -0.0866925
0.217905 1.47923 -0.0867733
0.240374 1.46897 -0.0864627
0.20628 1.4744 -0.0864269
0.272494 1.46358 -0.086705
0.283075 1.46846 -0.087224
0.272385 1.47356 -0.0873407
0.282991 1.47844 -0.0878685
0.272293 1.48354 -0.0879852
0.2829 1.48841 -0.0885345
0.28281 1.49839 -0.0891674
0.272185 1.49352 -0.0886465
0.261404 1.49863 -0.0887936
0.293439 1.50328 -0.0895485
0.272104 1.5035 -0.0892842
0.282717 1.50837 -0.0898378
0.261288 1.50861 -0.0894556
0.25059 1.50375 -0.0889771
0.250669 1.49377 -0.0883988
0.261504 1.48865 -0.088192
0.250819 1.48379 -0.0877718
0.261618 1.47867 -0.0875457
0.250928 1.47381 -0.0871443
0.261724 1.46869 -0.0869164
0.251066 1.46383 -0.0864831
0.2054 1.51432 -0.0889131
0.22867 1.51402 -0.0890905
0.193881 1.51948 -0.0890193
0.239586 1.51887 -0.089651
0.217105 1.51916 -0.0892073
0.205177 1.5243 -0.0895431
0.22848 1.524 -0.0897297
0.193683 1.52947 -0.0896173
0.239408 1.52885 -0.0902942
0.216892 1.52914 -0.0898494
0.19306 1.55941 -0.0914692
0.19326 1.54943 -0.0908567
0.193466 1.53945 -0.0902486
0.204949 1.53428 -0.0901725
0.228291 1.53398 -0.0903573
0.239228 1.53883 -0.0909301
0.216688 1.53912 -0.0904585
0.239087 1.54881 -0.0915187
0.216481 1.54911 -0.0910315
0.204742 1.54427 -0.0907829
0.22812 1.54397 -0.0909427
0.204566 1.55425 -0.091337
0.227942 1.55395 -0.091571
0.238929 1.55879 -0.0921346
0.216286 1.55908 -0.0916621
0.293354 1.51326 -0.0902191
0.271995 1.51348 -0.0899527
0.250457 1.51373 -0.0896474
0.282622 1.51835 -0.0904846
0.261176 1.51859 -0.0900552
0.293269 1.52323 -0.0908573
0.271886 1.52346 -0.0905809
0.250332 1.52371 -0.0902574
0.282518 1.52832 -0.0911319
0.261046 1.52857 -0.0906818
0.250188 1.53369 -0.0908728
0.293181 1.53321 -0.0915102
0.271776 1.53343 -0.091223
0.282431 1.5383 -0.0917757
0.250034 1.54367 -0.0914995
0.293108 1.54319 -0.0921639
0.27168 1.54341 -0.0918625
0.260938 1.53855 -0.0913053
0.282343 1.54828 -0.0924237
0.260844 1.54853 -0.0919124
0.249893 1.55365 -0.0920995
0.293025 1.55316 -0.0927711
0.271583 1.55339 -0.0924563
0.282232 1.55825 -0.0930563
0.260726 1.55851 -0.092502
0.292927 1.56314 -0.0934256
0.271475 1.56337 -0.0930766
0.181256 1.56458 -0.0914064
0.15742 1.56496 -0.0891867
0.16914 1.56976 -0.0909076
0.145386 1.57015 -0.0881296
0.180967 1.57456 -0.092015
0.157123 1.57495 -0.0896541
0.131569 1.62527 -0.0892689
0.131846 1.61529 -0.0889004
0.132349 1.6053 -0.088221
0.132904 1.59531 -0.0875476
0.133422 1.58532 -0.0868706
0.168843 1.57974 -0.0914657
0.145025 1.58014 -0.0887304
0.180682 1.58455 -0.0926067
0.156763 1.58494 -0.0902789
0.168512 1.58973 -0.0920349
0.144536 1.59012 -0.0894657
0.180382 1.59453 -0.093206
0.156316 1.59492 -0.0910008
0.143368 1.62008 -0.0913093
0.14298 1.63007 -0.0918759
0.180073 1.60452 -0.0938087
0.168226 1.59972 -0.0926081
0.144255 1.60012 -0.0899787
0.143765 1.6101 -0.0907048
0.16791 1.60971 -0.0931367
0.155954 1.60491 -0.0916607
0.17978 1.6145 -0.0944356
0.15558 1.61489 -0.0923202
0.167599 1.61969 -0.0936813
0.179538 1.62449 -0.0949902
0.155183 1.62488 -0.0929711
0.167281 1.62968 -0.0942396
0.131083 1.63526 -0.0898559
0.130585 1.64524 -0.0904875
0.130131 1.65523 -0.0911139
0.129734 1.66521 -0.0916669
0.119075 1.66042 -0.0876562
0.119958 1.65042 -0.0868399
0.17928 1.63447 -0.0955396
0.154847 1.63487 -0.0935477
0.142508 1.64005 -0.0925112
0.167019 1.63967 -0.0947256
0.142115 1.65004 -0.0930768
0.141725 1.66003 -0.0937102
0.179002 1.64446 -0.0960949
0.1545 1.64485 -0.0941084
0.166678 1.64965 -0.0953567
0.178743 1.65444 -0.0966734
0.154069 1.65483 -0.0947909
0.166353 1.65963 -0.0960112
0.178517 1.66443 -0.0971551
0.153711 1.66481 -0.0954219
0.120369 1.64043 -0.0863619
0.13382 1.57534 -0.0863293
0.204342 1.56423 -0.091978
0.227757 1.56392 -0.0922061
0.192869 1.5694 -0.092047
0.238762 1.56877 -0.0927497
0.216063 1.56906 -0.0923119
0.204133 1.57421 -0.0925846
0.227572 1.5739 -0.0928198
0.238604 1.57874 -0.0933564
0.192151 1.59935 -0.0938277
0.191914 1.60933 -0.0944236
0.192623 1.57938 -0.0926508
0.215869 1.57904 -0.0928963
0.22739 1.58388 -0.0934117
0.192385 1.58936 -0.0932565
0.203929 1.58419 -0.0931555
0.238439 1.58872 -0.0939604
0.215719 1.58902 -0.0934618
0.203771 1.59418 -0.0937038
0.227198 1.59386 -0.0940081
0.238269 1.5987 -0.0945558
0.215509 1.599 -0.0940296
0.203598 1.60416 -0.0942469
0.227011 1.60384 -0.0945964
0.238115 1.60868 -0.0951891
0.2153 1.60898 -0.094549
0.203416 1.61415 -0.0948458
0.226869 1.61382 -0.0951356
0.249728 1.56363 -0.0927087
0.282125 1.56823 -0.0936637
0.260609 1.56849 -0.0930785
0.249572 1.57361 -0.0933084
0.29282 1.57311 -0.0940409
0.271362 1.57334 -0.0936509
0.282019 1.57821 -0.0942823
0.260475 1.57846 -0.0937112
0.249396 1.58358 -0.093951
0.292716 1.58309 -0.0947023
0.271248 1.58332 -0.094298
0.281909 1.58818 -0.0949276
0.260346 1.58844 -0.0943357
0.249248 1.59356 -0.0945402
0.292621 1.59307 -0.0953146
0.271128 1.5933 -0.094896
0.281797 1.59816 -0.0955371
0.260231 1.59842 -0.094941
0.24909 1.60354 -0.0951578
0.292507 1.60304 -0.0959651
0.271001 1.60327 -0.0955106
0.281688 1.60814 -0.09614
0.260102 1.60839 -0.0955328
0.248951 1.61352 -0.0957133
0.292413 1.61302 -0.0965616
0.270897 1.61326 -0.0960575
0.191683 1.61932 -0.0950073
0.237939 1.61866 -0.095767
0.21511 1.61897 -0.0951349
0.19147 1.6293 -0.0955653
0.191243 1.63928 -0.0961263
0.190995 1.64927 -0.0967881
0.190778 1.65925 -0.0973674
0.20321 1.62413 -0.0954531
0.226671 1.6238 -0.0957308
0.237777 1.62864 -0.0963707
0.214916 1.62895 -0.0957177
0.203 1.63411 -0.0960514
0.226477 1.63378 -0.0963278
0.237611 1.63862 -0.0969641
0.21471 1.63892 -0.096334
0.202819 1.64409 -0.0966112
0.226281 1.64376 -0.096915
0.214535 1.6489 -0.0969289
0.237493 1.6486 -0.0975255
0.202624 1.65407 -0.0972093
0.226143 1.65374 -0.0974711
0.214387 1.65889 -0.0975135
0.237355 1.65858 -0.0981048
0.202428 1.66405 -0.0977897
0.225977 1.66371 -0.0980305
0.281589 1.61811 -0.0967376
0.25997 1.61837 -0.0961055
0.248816 1.6235 -0.0963344
0.292324 1.623 -0.0971788
0.270793 1.62323 -0.0966654
0.259842 1.62835 -0.0967203
0.281486 1.62809 -0.0973519
0.248662 1.63348 -0.096954
0.292229 1.63297 -0.0977999
0.270678 1.63321 -0.0972865
0.259706 1.63833 -0.0973338
0.281391 1.63807 -0.0979161
0.248515 1.64346 -0.0975557
0.292142 1.64295 -0.0983618
0.270557 1.64319 -0.0978932
0.259585 1.64831 -0.0979518
0.281292 1.64805 -0.0984809
0.248374 1.65344 -0.0981236
0.292055 1.65293 -0.0989683
0.270446 1.65316 -0.0984767
0.259466 1.65829 -0.0985423
0.281199 1.65803 -0.0990713
0.248235 1.66341 -0.0987274
0.291968 1.66291 -0.099539
0.270351 1.66314 -0.0991076
0.29372 1.46337 -0.0869473
0.33553 1.46302 -0.0881274
0.314832 1.46318 -0.0875904
0.293628 1.47335 -0.0876379
0.293578 1.48332 -0.0882654
0.293487 1.4933 -0.0889382
0.325136 1.46808 -0.0883853
0.304229 1.46826 -0.0876165
0.335461 1.47299 -0.0888115
0.314732 1.47316 -0.0882188
0.325094 1.47805 -0.0889969
0.304125 1.47824 -0.0881951
0.335399 1.48297 -0.0894377
0.314665 1.48313 -0.0888447
[...]
POINT_DATA 32926
VECTORS alpha float
2.96015e-07 -2.15992e-09 8.47012e-09
-2.41518e-08 6.55621e-06 -4.37793e-07
3.05867e-07 -9.84567e-10 6.64134e-09
3.09362e-07 -8.72397e-10 5.06501e-09
3.01822e-07 -1.51947e-09 7.83527e-09
3.03033e-07 -1.35215e-09 5.4795e-09
-3.9901e-08 8.84572e-06 -6.02323e-07
-2.36068e-08 6.55807e-06 -4.35962e-07
2.93139e-07 -9.15498e-10 6.70971e-09
2.96496e-07 -8.14686e-10 5.04571e-09
-2.20922e-08 7.67067e-06 -5.20768e-07
2.89078e-07 -1.43116e-09 7.85811e-09
2.90352e-07 -1.27195e-09 5.56604e-09
-3.82863e-08 1.01404e-05 -6.60043e-07
2.991e-07 -1.86653e-09 7.60837e-09
2.95808e-07 -8.06638e-10 4.96648e-09
-3.78143e-08 8.84831e-06 -5.97668e-07
-2.45082e-08 6.55969e-06 -4.40337e-07
2.92414e-07 -8.97005e-10 6.83372e-09
-2.04268e-08 7.6729e-06 -5.16146e-07
-4.5015e-08 1.16189e-05 -7.39609e-07
2.88325e-07 -1.40585e-09 8.13449e-09
-3.75443e-08 1.01433e-05 -6.56523e-07
2.8642e-07 -1.75508e-09 7.86803e-09
2.89561e-07 -1.24527e-09 5.82534e-09
2.88877e-07 -8.6529e-10 6.93833e-09
2.92094e-07 -7.74537e-10 5.07254e-09
-2.27426e-08 7.67495e-06 -5.20152e-07
3.12387e-07 -5.41389e-10 3.90711e-09
3.13934e-07 -4.66411e-10 2.16772e-09
3.14889e-07 -2.20911e-10 2.49563e-09
3.15073e-07 -2.38806e-10 -1.6584e-09
-8.95508e-09 4.37587e-06 -2.91715e-07
-6.8536e-09 3.2842e-06 -2.19637e-07
-3.95989e-09 2.19003e-06 -1.46384e-07
-2.77802e-10 1.09495e-06 -7.35274e-08
-6.10147e-15 -8.85761e-12 5.97269e-13
3.10223e-07 -7.77355e-10 2.61557e-09
-1.32591e-08 5.46403e-06 -3.6918e-07
2.99357e-07 -5.08264e-10 3.79229e-09
3.00844e-07 -4.45925e-10 1.947e-09
3.01792e-07 -2.06538e-10 2.32844e-09
3.01989e-07 -2.32826e-10 -1.78937e-09
-8.45595e-09 4.37707e-06 -2.91756e-07
-6.26761e-09 3.28507e-06 -2.20023e-07
-3.65644e-09 2.19063e-06 -1.4619e-07
-8.55156e-11 1.09525e-06 -7.34682e-08
-7.51389e-15 -8.69959e-12 5.85501e-13
2.97269e-07 -7.20964e-10 2.73805e-09
-1.20272e-08 5.46564e-06 -3.66827e-07
-9.15707e-09 4.37826e-06 -2.93988e-07
2.96556e-07 -7.0156e-10 2.88607e-09
2.98552e-07 -4.9202e-10 3.89619e-09
3.00027e-07 -4.37869e-10 1.88851e-09
-3.72741e-09 2.19123e-06 -1.47363e-07
3.01013e-07 -1.93652e-10 2.36938e-09
3.01227e-07 -2.28615e-10 -1.87403e-09
-6.30006e-09 3.28595e-06 -2.2149e-07
1.76296e-12 1.09554e-06 -7.40642e-08
-8.2374e-09 4.37938e-06 -2.94242e-07
-1.17186e-08 5.46703e-06 -3.70228e-07
2.92704e-07 -6.63786e-10 3.14768e-09
2.94657e-07 -4.75131e-10 3.84976e-09
-3.32583e-09 2.19181e-06 -1.47091e-07
2.96066e-07 -4.27542e-10 1.7738e-09
2.97038e-07 -1.85189e-10 2.27897e-09
2.9725e-07 -2.28694e-10 -2.04043e-09
-3.96795e-07 2.02369e-05 -1.1833e-06
3.55126e-07 -4.20431e-09 1.12073e-08
-3.76919e-07 2.0244e-05 -1.1639e-06
3.46326e-07 -4.06698e-09 1.17162e-08
-3.55094e-07 2.02492e-05 -1.1666e-06
3.39985e-07 -3.96399e-09 1.21134e-08
-3.49876e-07 2.0254e-05 -1.17817e-06
-5.84995e-07 2.04436e-05 -1.12257e-06
-3.2856e-07 2.026e-05 -1.16091e-06
3.34875e-07 -3.87069e-09 1.25953e-08
3.31127e-07 -3.79127e-09 1.3603e-08
-5.4278e-07 2.04499e-05 -1.08834e-06
-3.31667e-07 2.02653e-05 -1.14e-06
3.26316e-07 -3.70774e-09 1.38805e-08
-5.51315e-07 2.04558e-05 -1.12656e-06
3.42331e-07 -4.26313e-09 -8.63054e-09
-3.47213e-07 2.02707e-05 -1.16394e-06
3.12751e-07 -3.51149e-09 1.45194e-08
-5.58465e-07 2.04623e-05 -1.15758e-06
3.33857e-07 -4.10463e-09 -6.68304e-09
-3.44259e-07 2.02767e-05 -1.17766e-06
3.08832e-07 -3.43332e-09 1.51211e-08
-5.49614e-07 2.04688e-05 -1.14557e-06
3.27746e-07 -3.97916e-09 -5.61228e-09
-5.55458e-07 2.04745e-05 -1.14615e-06
3.2814e-07 -3.61833e-09 1.96952e-08
3.23906e-07 -3.1704e-09 1.19432e-08
3.2741e-07 -3.41437e-09 1.68992e-08
3.10803e-07 -3.02782e-09 1.16025e-08
-1.79247e-07 1.72385e-05 -1.03362e-06
-2.37326e-07 1.90498e-05 -1.08301e-06
3.14077e-07 -3.43815e-09 1.91794e-08
-1.81931e-07 1.72428e-05 -1.03233e-06
3.13589e-07 -3.26018e-09 1.63618e-08
3.06194e-07 -2.96319e-09 1.15701e-08
-2.58559e-07 1.90547e-05 -1.09277e-06
-1.76896e-07 1.72468e-05 -1.04775e-06
3.09629e-07 -3.36711e-09 1.94362e-08
3.08997e-07 -3.19809e-09 1.62299e-08
2.98355e-07 -2.86685e-09 1.14252e-08
-2.63941e-07 1.90601e-05 -1.09929e-06
-1.79191e-07 1.72517e-05 -1.04382e-06
3.01199e-07 -3.25387e-09 1.95776e-08
3.00665e-07 -3.09449e-09 1.60084e-08
2.97477e-07 -2.84182e-09 1.1484e-08
-2.7127e-07 1.90655e-05 -1.09618e-06
-8.93457e-08 1.33253e-05 -8.1839e-07
3.02002e-07 -2.2093e-09 8.68186e-09
-8.8964e-08 1.33219e-05 -8.21546e-07
3.02647e-07 -2.22924e-09 8.56935e-09
-8.47244e-08 1.33181e-05 -8.26267e-07
3.10477e-07 -2.29934e-09 8.76575e-09
3.15362e-07 -2.35944e-09 8.65153e-09
-8.65051e-08 1.33146e-05 -8.23426e-07
3.12082e-07 -2.70441e-09 1.01505e-08
-5.80052e-08 1.1603e-05 -7.31236e-07
-8.68563e-08 1.33111e-05 -8.23142e-07
3.2783e-07 -2.46117e-09 9.06577e-09
3.24858e-07 -2.82745e-09 1.05068e-08
-1.13218e-07 1.52329e-05 -9.36636e-07
-1.17176e-07 1.52368e-05 -9.37767e-07
3.07365e-07 -2.63463e-09 1.03846e-08
-1.11741e-07 1.52412e-05 -9.33339e-07
2.99467e-07 -2.54955e-09 1.03179e-08
-1.17982e-07 1.52453e-05 -9.28861e-07
2.98647e-07 -2.52539e-09 1.05413e-08
-1.21176e-07 1.52489e-05 -9.28899e-07
-2.24415e-07 1.90447e-05 -1.07553e-06
-1.76164e-07 1.72344e-05 -1.02173e-06
3.32846e-07 -3.69702e-09 1.95666e-08
3.28498e-07 -3.2266e-09 1.20554e-08
3.32174e-07 -3.47741e-09 1.69982e-08
-2.2534e-07 1.90396e-05 -1.08826e-06
-1.7875e-07 1.72299e-05 -1.02719e-06
3.37137e-07 -3.77388e-09 1.92202e-08
3.32944e-07 -3.28025e-09 1.22053e-08
3.36687e-07 -3.53069e-09 1.71818e-08
3.57228e-07 -4.09883e-09 1.89986e-08
3.48947e-07 -3.9792e-09 1.89883e-08
3.42438e-07 -3.87306e-09 1.90261e-08
-2.17857e-07 1.9035e-05 -1.06904e-06
-1.74419e-07 1.72257e-05 -1.00729e-06
3.38305e-07 -3.3513e-09 1.2239e-08
3.42111e-07 -3.60775e-09 1.70632e-08
3.44748e-07 -3.43975e-09 1.20811e-08
3.48834e-07 -3.7036e-09 1.70401e-08
-2.11174e-07 1.90293e-05 -1.05482e-06
-1.74202e-07 1.72206e-05 -1.00292e-06
-2.07729e-07 1.90234e-05 -1.07478e-06
-1.74292e-07 1.72155e-05 -1.00164e-06
3.51965e-07 -3.53e-09 1.21618e-08
3.56625e-07 -3.80154e-09 1.7119e-08
-5.51809e-08 1.15998e-05 -7.2611e-07
-8.0274e-08 1.33076e-05 -8.17519e-07
-1.03655e-07 1.52289e-05 -9.30635e-07
3.32608e-07 -2.5182e-09 9.0486e-09
3.2951e-07 -2.90668e-09 1.01234e-08
-5.78775e-08 1.15968e-05 -7.20788e-07
-7.84464e-08 1.33041e-05 -8.05952e-07
-1.00697e-07 1.52251e-05 -9.16132e-07
3.3736e-07 -2.56535e-09 9.13465e-09
3.34212e-07 -2.96603e-09 1.00675e-08
-9.69787e-08 1.52211e-05 -9.02618e-07
-5.72204e-08 1.15938e-05 -7.10916e-07
-7.53926e-08 1.33007e-05 -7.931e-07
3.42959e-07 -2.63452e-09 9.0803e-09
-1.02587e-07 1.52164e-05 -8.97701e-07
-5.81922e-08 1.15903e-05 -7.09028e-07
-7.47423e-08 1.32965e-05 -7.92851e-07
3.39835e-07 -3.04718e-09 1.00804e-08
3.49369e-07 -2.70946e-09 9.02327e-09
3.46206e-07 -3.14158e-09 9.85011e-09
-1.04052e-07 1.5212e-05 -9.02873e-07
-6.58064e-08 1.1587e-05 -7.10403e-07
-8.19019e-08 1.32927e-05 -7.93305e-07
3.56148e-07 -2.7883e-09 8.85345e-09
3.53192e-07 -3.23868e-09 9.48762e-09
-6.70163e-08 1.15837e-05 -7.06693e-07
-8.06147e-08 1.3289e-05 -7.84775e-07
-3.90752e-07 2.02312e-05 -1.1706e-06
-5.8234e-07 2.04378e-05 -1.12621e-06
3.60052e-07 -4.28741e-09 1.08625e-08
3.46932e-07 -4.35168e-09 -9.19546e-09
-3.61816e-07 2.02252e-05 -1.16284e-06
-5.71086e-07 2.04325e-05 -1.14e-06
-6.66597e-07 1.94012e-05 -9.92463e-07
-6.28988e-07 1.9406e-05 -9.97253e-07
-6.19778e-07 1.94119e-05 -1.01232e-06
-6.41616e-07 1.94173e-05 -1.04999e-06
-6.25825e-07 1.94241e-05 -1.01346e-06
3.61344e-07 -4.35365e-09 9.92947e-09
3.48378e-07 -4.37882e-09 -9.52335e-09
-3.58203e-07 2.02199e-05 -1.14468e-06
-5.62999e-07 2.04264e-05 -1.14259e-06
3.76325e-07 -4.56156e-09 9.75601e-09
3.63718e-07 -4.56099e-09 -9.45631e-09
-3.55374e-07 2.02141e-05 -1.15582e-06
-5.39642e-07 2.04205e-05 -1.15798e-06
3.84269e-07 -4.86196e-09 -1.1967e-08
3.97119e-07 -5.04952e-09 -1.28698e-08
-3.75401e-07 2.02094e-05 -1.15321e-06
3.80448e-07 -4.66469e-09 9.03029e-09
3.66937e-07 -4.65461e-09 -1.09498e-08
3.70783e-07 -4.68954e-09 -1.11299e-08
3.82775e-07 -4.73869e-09 7.84762e-09
-5.26572e-07 2.04157e-05 -1.13087e-06
-3.70463e-07 2.02034e-05 -1.1672e-06
-5.3654e-07 2.04097e-05 -1.14392e-06
3.96316e-07 -4.94343e-09 7.21217e-09
-3.82791e-07 2.01972e-05 -1.18004e-06
-5.22989e-07 2.04037e-05 -1.11865e-06
4.08501e-07 -5.14287e-09 6.45539e-09
-6.52221e-07 1.93957e-05 -1.00578e-06
-6.34493e-07 1.93885e-05 -1.00752e-06
-6.1406e-07 1.93813e-05 -1.00095e-06
-6.34601e-07 1.93751e-05 -1.03895e-06
3.84985e-07 -5.07076e-09 -5.47605e-08
3.82126e-07 -5.06003e-09 -5.62855e-08
-3.6829e-07 2.01903e-05 -1.18012e-06
-5.10695e-07 2.03979e-05 -1.11352e-06
4.0831e-07 -5.2027e-09 -1.33271e-08
4.18128e-07 -5.32142e-09 4.98785e-09
4.15687e-07 -5.29607e-09 -1.42433e-08
4.16936e-07 -5.29935e-09 -1.43117e-08
-3.5124e-07 2.01841e-05 -1.16583e-06
-5.03382e-07 2.03916e-05 -1.09688e-06
4.24304e-07 -5.4386e-09 4.46397e-09
-3.5104e-07 2.01778e-05 -1.17286e-06
-5.04395e-07 2.03859e-05 -1.0991e-06
4.25438e-07 -5.4776e-09 4.26886e-09
-3.50227e-07 2.01716e-05 -1.17809e-06
-5.08008e-07 2.038e-05 -1.11481e-06
3.76824e-07 -4.9388e-09 -5.39473e-08
-6.00617e-07 1.94286e-05 -9.73213e-07
-1.85507e-07 1.90182e-05 -1.06506e-06
-1.59623e-07 1.72106e-05 -9.93781e-07
3.61683e-07 -4.1631e-09 1.85715e-08
3.55714e-07 -3.57032e-09 1.23034e-08
3.60716e-07 -3.8459e-09 1.73583e-08
-1.70318e-07 1.90126e-05 -1.06259e-06
-1.57788e-07 1.72055e-05 -9.99636e-07
3.57678e-07 -3.62702e-09 1.19888e-08
3.82363e-07 -4.50597e-09 1.82928e-08
3.84226e-07 -4.55165e-09 1.78495e-08
3.63209e-07 -4.22574e-09 1.786e-08
3.62527e-07 -3.90846e-09 1.68496e-08
-1.60655e-07 1.72008e-05 -1.00214e-06
3.77966e-07 -4.41543e-09 1.85423e-08
-1.72418e-07 1.90072e-05 -1.07931e-06
3.70553e-07 -3.77634e-09 1.22609e-08
3.76101e-07 -4.09105e-09 1.70007e-08
-1.80909e-07 1.90019e-05 -1.08876e-06
-1.53412e-07 1.71957e-05 -1.00555e-06
3.74814e-07 -3.83425e-09 1.21688e-08
3.80262e-07 -4.17201e-09 1.67421e-08
-1.76802e-07 1.89966e-05 -1.08214e-06
-1.53408e-07 1.71906e-05 -1.00235e-06
3.75729e-07 -3.84513e-09 1.2383e-08
3.8165e-07 -4.22404e-09 1.60684e-08
-1.79867e-07 1.89901e-05 -1.09466e-06
-1.41041e-07 1.71856e-05 -1.00805e-06
-1.09816e-07 1.52079e-05 -8.99694e-07
3.59628e-07 -2.84035e-09 8.65096e-09
3.56831e-07 -3.29686e-09 9.24572e-09
-1.1154e-07 1.52033e-05 -9.0619e-07
-6.63174e-08 1.15801e-05 -7.10479e-07
-7.6946e-08 1.32848e-05 -7.89492e-07
3.62133e-07 -2.87594e-09 8.62295e-09
3.59113e-07 -3.33648e-09 8.98766e-09
-1.13197e-07 1.51989e-05 -9.0948e-07
-6.19515e-08 1.15765e-05 -7.11149e-07
-6.60693e-08 1.32802e-05 -7.91184e-07
3.7431e-07 -2.98507e-09 8.74534e-09
3.71646e-07 -3.47255e-09 8.98395e-09
-1.10708e-07 1.51947e-05 -9.05055e-07
-5.85567e-08 1.15731e-05 -7.09655e-07
-6.41945e-08 1.32765e-05 -7.85624e-07
3.78983e-07 -3.05348e-09 8.39254e-09
3.7604e-07 -3.54313e-09 8.81487e-09
-1.12816e-07 1.51897e-05 -9.08494e-07
-5.97398e-08 1.15692e-05 -7.14474e-07
-6.28477e-08 1.32721e-05 -7.92836e-07
3.79143e-07 -3.08773e-09 7.79413e-09
3.76511e-07 -3.57094e-09 8.54059e-09
-1.19941e-07 1.5185e-05 -9.15149e-07
-6.35795e-08 1.15659e-05 -7.11343e-07
-6.5747e-08 1.32682e-05 -7.9678e-07
3.97796e-07 -4.7502e-09 1.79023e-08
3.89006e-07 -4.01499e-09 1.22622e-08
3.95093e-07 -4.4068e-09 1.63023e-08
4.08979e-07 -4.94581e-09 1.70884e-08
4.18428e-07 -5.10596e-09 1.63554e-08
4.24846e-07 -5.21077e-09 1.67383e-08
4.27062e-07 -5.26931e-09 1.63816e-08
-1.82479e-07 1.89839e-05 -1.11178e-06
-1.37012e-07 1.71797e-05 -1.0159e-06
3.98638e-07 -4.14403e-09 1.21056e-08
4.05734e-07 -4.55437e-09 1.60858e-08
-1.95456e-07 1.89776e-05 -1.12229e-06
-1.30952e-07 1.71737e-05 -1.02798e-06
4.0762e-07 -4.27177e-09 1.18453e-08
4.15103e-07 -4.67744e-09 1.60206e-08
-2.09391e-07 1.89717e-05 -1.128e-06
-1.20655e-07 1.71683e-05 -1.01488e-06
4.2065e-07 -4.78238e-09 1.55895e-08
4.13408e-07 -4.37947e-09 1.14912e-08
-2.17243e-07 1.89658e-05 -1.13584e-06
-1.21214e-07 1.71623e-05 -1.01531e-06
4.23364e-07 -4.857e-09 1.49e-08
4.17166e-07 -4.44745e-09 1.10016e-08
-2.20555e-07 1.89606e-05 -1.1546e-06
-1.12199e-07 1.71565e-05 -1.02085e-06
3.92616e-07 -3.23523e-09 7.53031e-09
3.89726e-07 -3.7383e-09 8.32216e-09
-1.13109e-07 1.51801e-05 -9.17567e-07
-6.21509e-08 1.1562e-05 -7.15482e-07
-5.95953e-08 1.32637e-05 -7.99655e-07
3.98664e-07 -3.84552e-09 8.40486e-09
4.01153e-07 -3.33728e-09 7.45443e-09
-1.16492e-07 1.51752e-05 -9.31866e-07
-6.27693e-08 1.15583e-05 -7.16868e-07
-5.86604e-08 1.32592e-05 -8.12352e-07
4.07274e-07 -3.96271e-09 8.283e-09
4.09792e-07 -3.46882e-09 6.78182e-09
-1.17543e-07 1.51707e-05 -9.32441e-07
-5.85713e-08 1.15541e-05 -7.17462e-07
-5.90199e-08 1.32551e-05 -8.10645e-07
4.12668e-07 -4.04857e-09 8.25802e-09
4.15216e-07 -3.58019e-09 5.84677e-09
-1.16105e-07 1.51667e-05 -9.23355e-07
-6.01347e-08 1.15505e-05 -7.15947e-07
-6.13121e-08 1.32507e-05 -8.16623e-07
4.16917e-07 -4.09884e-09 8.37656e-09
4.20073e-07 -3.6519e-09 5.7391e-09
-1.12126e-07 1.51615e-05 -9.1948e-07
-6.82535e-08 1.15463e-05 -7.19869e-07
-5.13804e-08 1.32455e-05 -8.20626e-07
-5.1846e-08 1.1616e-05 -7.33804e-07
-3.91189e-08 8.8435e-06 -5.99009e-07
-3.22817e-08 1.01378e-05 -6.53686e-07
-5.24217e-08 1.16129e-05 -7.29758e-07
-4.44972e-08 1.16094e-05 -7.35389e-07
-4.81547e-08 1.16061e-05 -7.33541e-07
3.07498e-07 -1.55109e-09 8.00181e-09
3.04848e-07 -1.9058e-09 7.78779e-09
-3.42091e-08 8.84098e-06 -5.95593e-07
-2.85605e-08 1.01353e-05 -6.46609e-07
3.079e-07 -1.57619e-09 7.77793e-09
3.05444e-07 -1.9417e-09 7.13499e-09
-3.21732e-08 8.83883e-06 -5.9311e-07
-2.3633e-08 1.01324e-05 -6.4812e-07
-3.38065e-08 8.83652e-06 -5.9236e-07
3.15776e-07 -1.63351e-09 7.69705e-09
-2.56034e-08 1.01298e-05 -6.45451e-07
3.13419e-07 -1.99794e-09 7.22346e-09
3.21067e-07 -1.70067e-09 7.21404e-09
3.18572e-07 -2.06918e-09 6.72767e-09
-3.54068e-08 8.83391e-06 -5.94486e-07
-2.70008e-08 1.01269e-05 -6.45969e-07
3.33027e-07 -1.79466e-09 7.06068e-09
3.30868e-07 -2.16952e-09 6.69884e-09
-2.34392e-08 6.55453e-06 -4.34445e-07
-2.22781e-08 7.66864e-06 -5.19821e-07
3.11196e-07 -1.00665e-09 6.81377e-09
3.14609e-07 -8.85721e-10 5.33133e-09
3.08449e-07 -1.37277e-09 5.79335e-09
3.0875e-07 -1.38267e-09 5.75733e-09
3.16524e-07 -1.43282e-09 5.76497e-09
3.21994e-07 -1.48351e-09 5.5448e-09
3.33675e-07 -1.5533e-09 5.65749e-09
-2.05596e-08 6.55251e-06 -4.3497e-07
-1.81554e-08 7.6664e-06 -5.16586e-07
3.1146e-07 -1.02386e-09 6.68983e-09
3.14858e-07 -8.96867e-10 5.34465e-09
-2.05016e-08 6.55064e-06 -4.36997e-07
-1.73272e-08 7.66434e-06 -5.16847e-07
-2.12545e-08 6.54888e-06 -4.36242e-07
3.22591e-07 -9.30454e-10 5.48168e-09
3.19093e-07 -1.0688e-09 6.71819e-09
-1.709e-08 7.6621e-06 -5.17172e-07
3.28432e-07 -9.72991e-10 5.34471e-09
3.24727e-07 -1.12416e-09 6.39587e-09
-2.22458e-08 6.54697e-06 -4.38179e-07
-1.87566e-08 7.65978e-06 -5.20559e-07
3.3613e-07 -1.1845e-09 6.52841e-09
3.39581e-07 -1.0102e-09 5.69673e-09
-3.27945e-08 8.83155e-06 -5.91306e-07
-2.46674e-08 1.01244e-05 -6.3925e-07
3.37977e-07 -1.85486e-09 6.69203e-09
3.35692e-07 -2.22668e-09 6.59178e-09
-3.30263e-08 8.82913e-06 -5.90192e-07
-2.46219e-08 1.01219e-05 -6.34974e-07
3.42917e-07 -1.89959e-09 6.70935e-09
3.40699e-07 -2.27763e-09 6.43407e-09
-3.30628e-08 8.82649e-06 -5.91463e-07
-2.43735e-08 1.01188e-05 -6.38369e-07
3.48726e-07 -1.96407e-09 6.37061e-09
3.46548e-07 -2.34326e-09 6.20498e-09
-3.25718e-08 8.82396e-06 -5.87891e-07
-2.09469e-08 1.01156e-05 -6.37947e-07
3.55161e-07 -2.03813e-09 5.91614e-09
3.52986e-07 -2.4311e-09 5.52275e-09
-3.3089e-08 8.82117e-06 -5.86417e-07
-2.22669e-08 1.01123e-05 -6.41743e-07
3.59723e-07 -2.48424e-09 5.76636e-09
3.61833e-07 -2.09972e-09 5.70908e-09
-3.33469e-08 8.81874e-06 -5.83116e-07
-2.23292e-08 1.01093e-05 -6.42855e-07
-1.98391e-08 6.54501e-06 -4.37447e-07
-1.6687e-08 7.65763e-06 -5.18174e-07
3.55993e-07 -1.74364e-09 5.32175e-09
3.62656e-07 -1.79324e-09 5.29594e-09
3.38707e-07 -1.59728e-09 5.54485e-09
3.41272e-07 -1.23362e-09 6.33603e-09
3.44802e-07 -1.04555e-09 5.71654e-09
3.43751e-07 -1.64277e-09 5.4507e-09
3.49578e-07 -1.68303e-09 5.58083e-09
-1.96592e-08 6.54317e-06 -4.37178e-07
-1.64834e-08 7.65544e-06 -5.18041e-07
3.49969e-07 -1.08414e-09 5.56922e-09
3.46293e-07 -1.27787e-09 6.24581e-09
-1.90793e-08 6.54128e-06 -4.36471e-07
-1.45966e-08 7.65307e-06 -5.18338e-07
3.55939e-07 -1.11128e-09 5.70718e-09
3.52217e-07 -1.32688e-09 6.06869e-09
-1.79413e-08 6.53923e-06 -4.36474e-07
-1.4391e-08 7.65073e-06 -5.18805e-07
3.62401e-07 -1.14612e-09 5.68368e-09
3.58663e-07 -1.37046e-09 6.0252e-09
-1.84426e-08 6.53732e-06 -4.34655e-07
-1.34858e-08 7.64829e-06 -5.1851e-07
3.6524e-07 -1.407e-09 6.12902e-09
3.68912e-07 -1.17825e-09 5.83325e-09
-1.73246e-08 6.5353e-06 -4.32307e-07
-1.33174e-08 7.6461e-06 -5.17727e-07
-1.40236e-08 5.46256e-06 -3.67102e-07
-8.16327e-09 4.37469e-06 -2.89886e-07
-6.57615e-09 3.28331e-06 -2.18638e-07
3.17551e-07 -5.55708e-10 3.95261e-09
3.1549e-07 -7.93123e-10 2.65713e-09
-1.22782e-08 5.4609e-06 -3.67411e-07
-6.56799e-09 4.37336e-06 -2.90292e-07
-5.61987e-09 3.28227e-06 -2.18802e-07
-1.26384e-08 5.45778e-06 -3.66767e-07
-1.34981e-08 5.45618e-06 -3.67546e-07
3.15892e-07 -7.96387e-10 2.68739e-09
3.17825e-07 -5.60056e-10 3.93251e-09
-1.16613e-08 5.45924e-06 -3.68612e-07
3.23606e-07 -8.28442e-10 2.65528e-09
3.25511e-07 -5.84362e-10 3.95847e-09
-5.18548e-09 4.37202e-06 -2.90366e-07
-4.94413e-09 3.28132e-06 -2.18221e-07
-5.1265e-09 4.37083e-06 -2.89715e-07
-5.3287e-09 3.28041e-06 -2.18152e-07
3.31636e-07 -6.03834e-10 4.02221e-09
3.29523e-07 -8.48353e-10 2.73644e-09
-5.27036e-09 4.36946e-06 -2.90396e-07
-5.49304e-09 3.27938e-06 -2.18538e-07
3.42465e-07 -6.30208e-10 4.2133e-09
3.40527e-07 -8.80885e-10 2.93723e-09
-3.96826e-09 2.18945e-06 -1.45367e-07
-3.91464e-10 1.09466e-06 -7.30483e-08
3.19974e-07 -2.29992e-10 2.52807e-09
3.20132e-07 -2.46694e-10 -1.68634e-09
3.18964e-07 -4.68878e-10 2.34234e-09
-3.4401e-09 2.18878e-06 -1.45443e-07
-1.84996e-10 1.0943e-06 -7.32237e-08
3.19393e-07 -4.63357e-10 2.52143e-09
3.20318e-07 -2.31508e-10 2.52796e-09
3.20489e-07 -2.47228e-10 -1.70551e-09
3.27081e-07 -4.77117e-10 2.67678e-09
3.3331e-07 -4.87295e-10 2.86073e-09
3.44022e-07 -5.07512e-10 3.06605e-09
-3.28697e-09 2.18815e-06 -1.44974e-07
3.27966e-07 -2.44775e-10 2.58801e-09
3.28107e-07 -2.56722e-10 -1.69634e-09
-2.07557e-10 1.09398e-06 -7.29806e-08
-3.30083e-09 2.18748e-06 -1.45462e-07
-4.02415e-10 1.09367e-06 -7.31215e-08
3.34238e-07 -2.5101e-10 2.75727e-09
3.34388e-07 -2.58073e-10 -1.53387e-09
-3.30918e-09 2.18677e-06 -1.46023e-07
-4.50338e-10 1.09331e-06 -7.33248e-08
3.44856e-07 -2.63347e-10 2.94287e-09
3.44936e-07 -2.70516e-10 -1.50075e-09
-3.86652e-15 -9.0403e-12 6.05898e-13
3.12638e-15 -9.5419e-12 6.41353e-13
-5.78012e-15 -9.21642e-12 6.18059e-13
-1.26669e-08 5.45464e-06 -3.65562e-07
-3.49631e-09 4.36815e-06 -2.89761e-07
-4.9205e-09 3.2784e-06 -2.18126e-07
3.47789e-07 -6.5136e-10 4.21019e-09
3.45826e-07 -9.0202e-10 2.99169e-09
-2.96058e-09 4.36681e-06 -2.90447e-07
-4.7272e-09 3.2774e-06 -2.18466e-07
-1.35597e-08 5.45308e-06 -3.64969e-07
-1.35711e-08 5.45143e-06 -3.64916e-07
-1.2571e-08 5.4496e-06 -3.65092e-07
-1.33222e-08 5.44798e-06 -3.63347e-07
-1.39678e-08 5.44637e-06 -3.60524e-07
3.51177e-07 -9.20394e-10 3.07688e-09
3.53031e-07 -6.63356e-10 4.30428e-09
-2.14099e-09 4.36539e-06 -2.91885e-07
-4.48572e-09 3.27633e-06 -2.19555e-07
3.57262e-07 -9.38877e-10 3.21669e-09
3.59151e-07 -6.84625e-10 4.34078e-09
-2.10978e-09 4.36402e-06 -2.91088e-07
-4.49709e-09 3.27531e-06 -2.18371e-07
3.657e-07 -7.08669e-10 4.32744e-09
3.63708e-07 -9.65188e-10 3.23286e-09
-2.55382e-09 4.36264e-06 -2.91736e-07
-4.77291e-09 3.27425e-06 -2.19122e-07
3.72305e-07 -7.30361e-10 4.42424e-09
3.70301e-07 -9.94198e-10 3.26207e-09
-2.18203e-09 4.36125e-06 -2.91163e-07
-4.72773e-09 3.27321e-06 -2.18601e-07
-2.90722e-09 2.18611e-06 -1.4573e-07
-3.49213e-10 1.09298e-06 -7.32266e-08
3.49404e-07 -5.18287e-10 3.21175e-09
3.50265e-07 -2.74389e-10 3.02143e-09
3.50348e-07 -2.79336e-10 -1.4616e-09
-2.73617e-09 2.18542e-06 -1.46053e-07
-2.83909e-10 1.09262e-06 -7.34105e-08
3.5471e-07 -5.24171e-10 3.37841e-09
3.55609e-07 -2.82674e-10 3.07296e-09
3.55702e-07 -2.85818e-10 -1.46221e-09
-2.67489e-09 2.18474e-06 -1.46477e-07
-3.39869e-10 1.09228e-06 -7.36226e-08
3.60884e-07 -5.38119e-10 3.50397e-09