# vtk DataFile Version 3.0
vtk output
ASCII
DATASET POLYDATA
POINTS 39895 float
0.365051 1.76756 -0.107988
0.344006 1.76771 -0.107627
0.365137 1.75758 -0.107327
0.333431 1.7628 -0.10724
0.354593 1.76264 -0.107484
0.322855 1.76789 -0.10724
0.344105 1.75772 -0.106995
0.301758 1.76811 -0.106596
0.365205 1.7476 -0.106667
0.354668 1.75266 -0.106827
0.333528 1.75282 -0.106591
0.322951 1.75791 -0.10662
0.291062 1.76322 -0.106228
0.280182 1.76834 -0.106161
0.312512 1.76301 -0.106492
0.354728 1.74267 -0.106198
0.344172 1.74774 -0.106344
0.427502 1.76726 -0.10881
0.458574 1.76218 -0.10878
0.44824 1.7672 -0.108943
0.468904 1.76716 -0.108922
0.489541 1.76715 -0.108825
0.417138 1.7623 -0.108586
0.406754 1.76734 -0.10872
0.479223 1.76217 -0.108505
0.406793 1.75736 -0.108078
0.42753 1.75728 -0.10816
0.396495 1.7624 -0.108227
0.437866 1.76225 -0.108391
0.386072 1.76744 -0.108285
0.458581 1.7522 -0.10813
0.448256 1.75722 -0.108297
0.468906 1.75718 -0.108267
0.489531 1.75717 -0.108174
0.375557 1.76251 -0.107691
0.41717 1.75232 -0.107929
0.437889 1.75227 -0.107729
0.386114 1.75746 -0.107665
0.479213 1.75219 -0.107849
0.406827 1.74738 -0.107421
0.427548 1.7473 -0.107494
0.396534 1.75242 -0.107569
0.458579 1.74222 -0.107464
0.448258 1.74724 -0.107637
0.468895 1.74721 -0.107607
0.489506 1.74719 -0.10752
0.37563 1.75253 -0.107033
0.396571 1.74244 -0.106925
0.417194 1.74234 -0.10727
0.386164 1.74748 -0.107027
0.437904 1.74229 -0.107065
0.448273 1.73726 -0.106979
0.468898 1.73723 -0.106947
0.479196 1.74221 -0.107185
0.417224 1.73236 -0.106622
0.406866 1.7374 -0.106762
0.427571 1.73733 -0.106832
0.458578 1.73224 -0.106807
0.489486 1.73721 -0.106861
0.375688 1.74255 -0.106473
0.396609 1.73246 -0.106293
0.386219 1.7375 -0.106397
0.448287 1.72728 -0.106322
0.468901 1.72725 -0.106287
0.48949 1.72723 -0.1062
0.437925 1.73231 -0.106414
0.47919 1.73223 -0.106528
0.186105 1.82964 -0.106479
0.245631 1.82372 -0.108211
0.234211 1.82888 -0.10839
0.245797 1.81374 -0.107548
0.234419 1.81889 -0.107706
0.222902 1.82406 -0.107684
0.210951 1.82924 -0.107604
0.245976 1.80375 -0.106884
0.234636 1.8089 -0.107035
0.223141 1.81407 -0.107022
0.211203 1.81925 -0.106966
0.198762 1.82444 -0.106652
0.24615 1.79376 -0.106236
0.234823 1.79892 -0.106396
0.22337 1.80408 -0.106379
0.211452 1.80926 -0.106346
0.173428 1.83485 -0.106409
0.185769 1.83963 -0.107139
0.173063 1.84484 -0.10703
0.185459 1.84962 -0.107765
0.172679 1.85483 -0.107669
0.185149 1.85962 -0.108385
0.184819 1.86961 -0.109043
0.172316 1.86482 -0.1083
0.171981 1.87482 -0.108903
0.184483 1.8796 -0.109713
0.171562 1.88481 -0.109632
0.184136 1.88959 -0.110423
0.158816 1.89003 -0.108691
0.159241 1.88003 -0.108034
0.159649 1.87004 -0.107445
0.16015 1.86005 -0.106756
0.160511 1.85005 -0.106206
0.146814 1.88525 -0.106206
0.245471 1.83371 -0.108866
0.222682 1.83405 -0.108338
0.1985 1.83443 -0.107222
0.234026 1.83886 -0.109052
0.21071 1.83923 -0.108206
0.245309 1.84369 -0.109485
0.222482 1.84404 -0.108942
0.198251 1.84443 -0.107747
0.233835 1.84885 -0.109697
0.21049 1.84922 -0.108771
0.233656 1.85884 -0.110317
0.24514 1.85368 -0.110141
0.222258 1.85402 -0.109591
0.19797 1.85441 -0.108356
0.244973 1.86366 -0.110786
0.222052 1.86401 -0.110216
0.210263 1.85921 -0.109376
0.233497 1.86882 -0.110911
0.210041 1.86919 -0.109977
0.197722 1.86441 -0.108913
0.24482 1.87365 -0.111418
0.221843 1.874 -0.110845
0.197449 1.8744 -0.109532
0.2333 1.87881 -0.111546
0.209817 1.87918 -0.110554
0.244651 1.88363 -0.112055
0.221639 1.88398 -0.111485
0.197181 1.88438 -0.110161
0.233116 1.88879 -0.112196
0.209587 1.88917 -0.11118
0.244495 1.89361 -0.112681
0.221466 1.89397 -0.11206
0.196898 1.89437 -0.110822
0.117288 2.01564 -0.106158
0.171187 1.8948 -0.11029
0.183852 1.89958 -0.111041
0.146236 1.89525 -0.106897
0.170865 1.90479 -0.110875
0.158354 1.90002 -0.10936
0.183592 1.90957 -0.111592
0.157986 1.91001 -0.10991
0.145801 1.90524 -0.107414
0.170579 1.91478 -0.111417
0.145312 1.91523 -0.107995
0.183316 1.91956 -0.112178
0.157594 1.92 -0.110494
0.170255 1.92477 -0.112006
0.144891 1.92523 -0.108456
0.183034 1.92955 -0.112751
0.157258 1.92999 -0.111008
0.169928 1.93476 -0.112574
0.144459 1.93522 -0.109006
0.182731 1.93954 -0.113337
0.156915 1.93999 -0.111547
0.169596 1.94475 -0.113127
0.144004 1.94521 -0.109506
0.182445 1.94952 -0.113894
0.156542 1.94998 -0.112092
0.169312 1.95474 -0.113636
0.143437 1.95521 -0.110139
0.131653 1.95045 -0.106763
0.13221 1.94046 -0.106164
0.232938 1.89878 -0.112799
0.209355 1.89916 -0.111775
0.244335 1.9036 -0.113269
0.221271 1.90396 -0.112648
0.196632 1.90436 -0.111453
0.232746 1.90877 -0.113389
0.20913 1.90915 -0.112343
0.196374 1.91435 -0.112022
0.24415 1.91359 -0.113855
0.221065 1.91394 -0.113215
0.23255 1.91875 -0.113968
0.208919 1.91914 -0.112868
0.196154 1.92433 -0.112575
0.243994 1.92357 -0.114443
0.220857 1.92393 -0.113803
0.232376 1.92874 -0.114552
0.208684 1.92912 -0.113452
0.195924 1.93432 -0.11312
0.243838 1.93356 -0.115027
0.2207 1.93392 -0.114326
0.232208 1.93872 -0.115131
0.208455 1.93911 -0.114002
0.195666 1.94431 -0.1137
0.243652 1.94354 -0.115647
0.220494 1.9439 -0.11488
0.23202 1.94871 -0.115719
0.208251 1.9491 -0.114467
0.195418 1.9543 -0.114259
0.24346 1.95353 -0.116276
0.220287 1.95389 -0.11546
0.182158 1.95951 -0.11444
0.156173 1.95997 -0.112596
0.13099 1.96044 -0.107417
0.168976 1.96473 -0.11418
0.142975 1.9652 -0.110723
0.181861 1.9695 -0.114987
0.15581 1.96996 -0.113131
0.13042 1.97044 -0.107986
0.168693 1.97472 -0.114698
0.14261 1.97519 -0.111198
0.181618 1.97949 -0.11552
0.155468 1.97994 -0.113682
0.12985 1.98043 -0.108526
0.168401 1.98471 -0.115256
0.142186 1.98518 -0.111795
0.129478 1.99042 -0.108996
0.181319 1.98948 -0.116117
0.155202 1.98993 -0.114149
0.168136 1.99469 -0.115763
0.141831 1.99517 -0.112331
0.129187 2.00041 -0.109413
0.181065 1.99946 -0.116659
0.154914 1.99992 -0.114668
0.167861 2.00468 -0.116278
0.141456 2.00515 -0.112878
0.128837 2.01039 -0.109879
0.180817 2.00945 -0.117149
0.154623 2.00991 -0.115156
0.16756 2.01467 -0.116784
0.141085 2.01514 -0.113372
0.180568 2.01944 -0.117648
0.154346 2.0199 -0.115584
0.231819 1.95869 -0.116321
0.208007 1.95909 -0.115043
0.195147 1.96429 -0.114828
0.243282 1.96351 -0.11689
0.22007 1.96388 -0.116043
0.231618 1.96868 -0.11692
0.207763 1.96907 -0.115603
0.194914 1.97428 -0.115361
0.243133 1.97349 -0.11748
0.219867 1.97386 -0.1166
0.231482 1.97866 -0.117473
0.207555 1.97906 -0.116188
0.194667 1.98427 -0.115908
0.242957 1.98348 -0.118086
0.219664 1.98385 -0.117186
0.231311 1.98865 -0.11806
0.20732 1.98904 -0.116804
0.194455 1.99425 -0.116458
0.242805 1.99346 -0.118664
0.219502 1.99384 -0.11771
0.231175 1.99863 -0.118609
0.20711 1.99903 -0.117386
0.194184 2.00424 -0.117027
0.24264 2.00344 -0.119247
0.219302 2.00382 -0.118277
0.206883 2.00901 -0.117936
0.231002 2.00862 -0.119156
0.19392 2.01422 -0.117564
0.24244 2.01343 -0.119839
0.219087 2.01381 -0.118817
0.20664 2.019 -0.118471
0.230804 2.0186 -0.119707
0.290931 1.7732 -0.106862
0.301628 1.77809 -0.107204
0.290795 1.78319 -0.107473
0.301505 1.78807 -0.107851
0.290641 1.79317 -0.108125
0.301384 1.79806 -0.108533
0.301253 1.80804 -0.10919
0.290509 1.80316 -0.108791
0.290364 1.81314 -0.109443
0.301126 1.81802 -0.109846
0.27944 1.81826 -0.10924
0.311822 1.82291 -0.110407
0.290227 1.82312 -0.110083
0.301 1.828 -0.110497
0.279328 1.82824 -0.109858
0.268263 1.82341 -0.108851
0.279581 1.80827 -0.10862
0.256749 1.82856 -0.108561
0.268429 1.81342 -0.108234
0.279728 1.79829 -0.108033
0.256931 1.81857 -0.107946
0.268587 1.80344 -0.107591
0.279886 1.7883 -0.107406
0.257109 1.80859 -0.107318
0.268758 1.79345 -0.106973
0.280043 1.77832 -0.106787
0.257287 1.7986 -0.106732
0.268945 1.78347 -0.106369
0.354496 1.77262 -0.108139
0.333339 1.77278 -0.107875
0.312402 1.77299 -0.107136
0.31226 1.78298 -0.107745
0.31215 1.79296 -0.108416
0.312043 1.80294 -0.109097
0.311938 1.81292 -0.109754
0.364993 1.77754 -0.108652
0.343916 1.77769 -0.108273
0.322763 1.77788 -0.107855
0.354431 1.7826 -0.108802
0.333241 1.78276 -0.10852
0.364951 1.78751 -0.109332
0.343854 1.78767 -0.108953
0.322666 1.78786 -0.108501
0.3544 1.79258 -0.109479
0.333183 1.79274 -0.109202
0.364936 1.79749 -0.110009
0.343815 1.79765 -0.109637
0.322595 1.79784 -0.109198
0.364894 1.80747 -0.110676
0.343748 1.80763 -0.110276
0.333119 1.80273 -0.109859
0.354353 1.80256 -0.110138
0.322504 1.80782 -0.10985
0.33304 1.81271 -0.110521
0.354298 1.81254 -0.110802
0.364796 1.81745 -0.111351
0.34366 1.81761 -0.110933
0.322412 1.8178 -0.110507
0.354195 1.82252 -0.111469
0.332939 1.82269 -0.111173
0.364733 1.82743 -0.11201
0.343573 1.82759 -0.111572
0.322312 1.82779 -0.111136
0.290093 1.8331 -0.110706
0.311704 1.83289 -0.111048
0.268138 1.83339 -0.109455
0.300839 1.83798 -0.111129
0.27919 1.83822 -0.110499
0.256583 1.83854 -0.109152
0.289973 1.84309 -0.111326
0.311589 1.84287 -0.111683
0.300747 1.84796 -0.111805
0.267978 1.84337 -0.110066
0.289855 1.85307 -0.111994
0.311492 1.85285 -0.112343
0.279055 1.84821 -0.111118
0.267817 1.85336 -0.110658
0.25643 1.84853 -0.109732
0.300619 1.85795 -0.112439
0.27893 1.85819 -0.111751
0.256226 1.85851 -0.110383
0.311384 1.86283 -0.112966
0.289747 1.86305 -0.112613
0.267661 1.86334 -0.111291
0.300526 1.86793 -0.113034
0.278797 1.86817 -0.112355
0.256045 1.8685 -0.110995
0.31126 1.87281 -0.113564
0.289612 1.87303 -0.113188
0.267499 1.87332 -0.111889
0.2559 1.87848 -0.111624
0.300396 1.87791 -0.11363
0.278634 1.87816 -0.112936
0.311142 1.88279 -0.114162
0.28949 1.88301 -0.11379
0.267347 1.88331 -0.112492
0.255779 1.88846 -0.11226
0.300267 1.88789 -0.11423
0.278487 1.88814 -0.11353
0.311035 1.89277 -0.114749
0.289352 1.89299 -0.114342
0.267196 1.89329 -0.113041
0.354132 1.8325 -0.11211
0.332848 1.83267 -0.111777
0.364662 1.83741 -0.112657
0.34349 1.83757 -0.112221
0.322195 1.83776 -0.111783
0.354081 1.84248 -0.112747
0.332786 1.84265 -0.112418
0.364636 1.84739 -0.113296
0.343457 1.84755 -0.112868
0.322142 1.84774 -0.112435
0.354018 1.85245 -0.11339
0.332712 1.85263 -0.113067
0.364566 1.85737 -0.113946
[...]
POINT_DATA 39895
VECTORS alpha float
1.80492e-07 -6.9587e-10 4.54315e-09
1.78879e-07 -8.47991e-10 5.2423e-09
1.73817e-07 -6.59931e-10 4.55662e-09
-5.02532e-08 8.91686e-06 -5.75341e-07
-4.19439e-08 7.73207e-06 -4.98305e-07
1.77965e-07 -1.04823e-09 5.13117e-09
1.72113e-07 -8.01962e-10 5.30374e-09
1.77076e-07 -1.25444e-09 5.03459e-09
1.71216e-07 -6.4397e-10 4.5366e-09
-4.08223e-08 7.73312e-06 -5.01348e-07
-4.94975e-08 8.91825e-06 -5.76833e-07
1.71024e-07 -9.92683e-10 5.18881e-09
-8.40746e-08 1.17093e-05 -7.45694e-07
1.773e-07 -1.42297e-09 5.62213e-09
-5.81785e-08 1.02202e-05 -6.53878e-07
-4.13357e-08 7.73427e-06 -5.01127e-07
1.69552e-07 -7.81479e-10 5.29363e-09
1.81264e-07 -3.83581e-10 2.52648e-09
-4.0082e-09 2.20758e-06 -1.46718e-07
1.81738e-07 -2.41996e-10 2.50838e-09
1.82195e-07 -1.16643e-10 2.4573e-09
1.82096e-07 -1.75423e-10 -7.49158e-10
-1.42833e-08 4.41095e-06 -2.91909e-07
1.80001e-07 -4.41898e-10 2.95589e-09
7.57883e-11 1.10372e-06 -7.36265e-08
1.7358e-07 -4.18487e-10 2.93914e-09
1.7484e-07 -3.65589e-10 2.50208e-09
-1.20441e-08 5.5085e-06 -3.61804e-07
-7.85851e-09 3.31053e-06 -2.20492e-07
1.80187e-07 -5.87517e-10 3.13688e-09
-3.8429e-09 2.2079e-06 -1.47116e-07
1.75367e-07 -2.24661e-10 2.53162e-09
1.75838e-07 -1.10277e-10 2.36949e-09
1.75768e-07 -1.70115e-10 -7.85417e-10
-1.93235e-08 6.60898e-06 -4.2844e-07
-1.44048e-08 4.41159e-06 -2.92652e-07
-7.69454e-09 3.31103e-06 -2.20927e-07
1.73603e-07 -5.51825e-10 3.21733e-09
2.64726e-10 1.10388e-06 -7.37928e-08
1.70888e-07 -4.06119e-10 2.9896e-09
1.7211e-07 -3.56629e-10 2.49699e-09
-1.15859e-08 5.50924e-06 -3.6317e-07
-3.32518e-09 2.20824e-06 -1.47245e-07
1.72611e-07 -2.16161e-10 2.52362e-09
1.73062e-07 -1.05853e-10 2.3121e-09
1.72992e-07 -1.67689e-10 -8.57245e-10
-1.77456e-08 6.60988e-06 -4.29949e-07
-1.18102e-08 5.51009e-06 -3.64367e-07
-1.35359e-08 4.41225e-06 -2.93152e-07
1.7092e-07 -5.3584e-10 3.31464e-09
-6.61673e-09 3.31151e-06 -2.21723e-07
1.72718e-07 -2.10329e-10 2.584e-09
1.73157e-07 -1.02532e-10 2.33139e-09
5.62206e-10 1.10405e-06 -7.39147e-08
-1.37193e-08 4.41288e-06 -2.93741e-07
1.7098e-07 -3.97519e-10 3.12986e-09
1.72182e-07 -3.51489e-10 2.55809e-09
-2.98807e-09 2.20854e-06 -1.4774e-07
1.73051e-07 -1.66388e-10 -8.85602e-10
-1.7034e-08 6.61086e-06 -4.29334e-07
-1.28859e-08 5.51088e-06 -3.64457e-07
1.71018e-07 -5.25245e-10 3.50562e-09
1.68627e-07 -2.00463e-10 2.58078e-09
1.69029e-07 -9.69041e-11 2.2931e-09
1.6895e-07 -1.61377e-10 -8.65985e-10
-6.47371e-09 3.31198e-06 -2.22316e-07
7.06533e-10 1.1042e-06 -7.42425e-08
1.99579e-07 -2.44279e-09 7.50072e-09
-1.59639e-07 1.53529e-05 -9.03017e-07
1.91934e-07 -2.08835e-09 6.38812e-09
-1.68806e-07 1.53552e-05 -9.08426e-07
1.88092e-07 -2.03292e-09 6.54235e-09
-2.60474e-07 1.73712e-05 -9.93187e-07
1.94698e-07 -2.25744e-09 7.26547e-09
-1.67187e-07 1.5358e-05 -9.04096e-07
1.87919e-07 -2.02263e-09 6.75824e-09
-2.74297e-07 1.73744e-05 -1.00051e-06
1.90449e-07 -2.1985e-09 7.31434e-09
-3.82327e-07 1.9195e-05 -1.06626e-06
-1.68179e-07 1.53602e-05 -9.06489e-07
1.83296e-07 -1.95276e-09 6.98694e-09
-2.72227e-07 1.73773e-05 -9.92259e-07
1.90408e-07 -2.18806e-09 7.59635e-09
-5.2148e-07 2.04175e-05 -1.07391e-06
2.05308e-07 -2.521e-09 7.39196e-09
-5.16277e-07 2.0414e-05 -1.07383e-06
2.04687e-07 -2.52583e-09 7.13742e-09
-5.01971e-07 2.04107e-05 -1.05839e-06
2.14351e-07 -2.65626e-09 7.14462e-09
2.13601e-07 -2.65293e-09 7.03403e-09
-5.14415e-07 2.04073e-05 -1.07662e-06
-5.05795e-07 2.04041e-05 -1.07398e-06
2.21586e-07 -2.75702e-09 7.18092e-09
-5.13494e-07 2.04007e-05 -1.08431e-06
2.25561e-07 -2.80802e-09 7.27431e-09
2.25467e-07 -2.87817e-09 9.39293e-10
2.21609e-07 -2.82474e-09 1.05028e-09
2.13449e-07 -2.7166e-09 1.30214e-09
2.13874e-07 -2.72208e-09 1.28343e-09
2.03957e-07 -2.58416e-09 1.55143e-09
-6.42741e-07 2.06075e-05 -1.08247e-06
-1.59783e-07 1.53503e-05 -8.93379e-07
-2.62224e-07 1.73686e-05 -9.96933e-07
-3.76379e-07 1.91921e-05 -1.06268e-06
1.97331e-07 -2.15605e-09 6.34916e-09
2.0036e-07 -2.33419e-09 7.08297e-09
-1.60307e-07 1.53475e-05 -8.93974e-07
-2.61561e-07 1.73656e-05 -1.00117e-06
-3.67837e-07 1.91885e-05 -1.05712e-06
1.96586e-07 -2.15905e-09 6.25731e-09
1.9963e-07 -2.34027e-09 6.86479e-09
2.0531e-07 -2.26973e-09 6.43239e-09
-1.55907e-07 1.5345e-05 -8.88064e-07
-2.49158e-07 1.73629e-05 -9.93592e-07
-3.48762e-07 1.91857e-05 -1.04834e-06
-1.72624e-07 1.53425e-05 -8.9957e-07
-2.63835e-07 1.736e-05 -1.00389e-06
2.08704e-07 -2.46133e-09 6.91842e-09
2.04483e-07 -2.27455e-09 6.32476e-09
2.07775e-07 -2.46425e-09 6.69787e-09
-3.61062e-07 1.91828e-05 -1.05488e-06
-1.58575e-07 1.53406e-05 -8.87433e-07
-2.54703e-07 1.73572e-05 -1.00864e-06
-3.4928e-07 1.91795e-05 -1.05994e-06
2.11447e-07 -2.36512e-09 6.48469e-09
2.15053e-07 -2.56453e-09 6.78118e-09
-1.74287e-07 1.53377e-05 -8.9768e-07
-2.66782e-07 1.73544e-05 -1.00955e-06
-3.53357e-07 1.91761e-05 -1.05927e-06
2.14526e-07 -2.40152e-09 6.65914e-09
2.18365e-07 -2.61698e-09 6.82214e-09
-1.77183e-07 1.53351e-05 -9.0231e-07
-2.65362e-07 1.7351e-05 -1.02124e-06
-3.54892e-07 1.91724e-05 -1.06286e-06
-7.99374e-07 1.95438e-05 -9.098e-07
-4.89903e-07 2.03966e-05 -1.06534e-06
2.27733e-07 -2.84623e-09 7.23839e-09
-6.17258e-07 2.06044e-05 -1.05587e-06
-5.01384e-07 2.03933e-05 -1.06654e-06
2.27911e-07 -2.91142e-09 7.01936e-10
2.28197e-07 -2.86003e-09 7.12941e-09
2.28476e-07 -2.92214e-09 2.35917e-10
-6.18376e-07 2.0601e-05 -1.06885e-06
-5.13606e-07 2.03902e-05 -1.06846e-06
-6.13265e-07 2.05972e-05 -1.06127e-06
2.31891e-07 -2.91972e-09 7.2203e-09
2.32346e-07 -2.98032e-09 -1.60306e-11
-5.24012e-07 2.03867e-05 -1.08143e-06
-6.45071e-07 2.05936e-05 -1.07632e-06
2.31098e-07 -2.91254e-09 7.24996e-09
2.31463e-07 -2.97425e-09 -2.43205e-10
-5.06914e-07 2.0383e-05 -1.09186e-06
-6.37253e-07 2.05899e-05 -1.07786e-06
2.35389e-07 -2.97441e-09 7.11501e-09
2.36239e-07 -3.04047e-09 -5.73809e-10
-5.08481e-07 2.03794e-05 -1.09574e-06
-6.35215e-07 2.05861e-05 -1.0614e-06
2.39015e-07 -3.0305e-09 7.05401e-09
2.40345e-07 -3.10433e-09 -8.45921e-10
-4.8908e-07 2.03761e-05 -1.08352e-06
-5.89266e-07 2.0582e-05 -1.00925e-06
2.32002e-07 -3.09091e-09 -1.97328e-08
2.27495e-07 -3.03145e-09 -1.93904e-08
2.16412e-07 -2.43493e-09 6.60817e-09
2.20317e-07 -2.65373e-09 6.64169e-09
-1.75905e-07 1.53323e-05 -9.0184e-07
-2.59047e-07 1.73482e-05 -1.0167e-06
-3.57341e-07 1.91697e-05 -1.05759e-06
2.17055e-07 -2.45428e-09 6.49952e-09
2.20887e-07 -2.67483e-09 6.43468e-09
-3.68414e-07 1.91665e-05 -1.05829e-06
-1.69468e-07 1.53295e-05 -8.89446e-07
-2.56188e-07 1.73451e-05 -1.01148e-06
2.20279e-07 -2.50907e-09 6.41027e-09
2.24306e-07 -2.73866e-09 6.23299e-09
-3.50004e-07 1.91636e-05 -1.04321e-06
-1.51938e-07 1.53263e-05 -8.87606e-07
-2.28978e-07 1.73419e-05 -9.96571e-07
2.19723e-07 -2.50524e-09 6.33879e-09
2.23578e-07 -2.73218e-09 6.11235e-09
-3.48082e-07 1.91601e-05 -1.05915e-06
-1.54705e-07 1.5323e-05 -8.93447e-07
-2.37093e-07 1.73388e-05 -1.00739e-06
2.23351e-07 -2.56191e-09 6.23222e-09
2.27608e-07 -2.79378e-09 5.92212e-09
-3.6877e-07 1.91568e-05 -1.0703e-06
-1.60763e-07 1.53201e-05 -8.90201e-07
-2.42877e-07 1.73358e-05 -1.00964e-06
2.26334e-07 -2.61296e-09 6.02105e-09
2.30978e-07 -2.85998e-09 5.46912e-09
-3.68471e-07 1.91532e-05 -1.07256e-06
-1.58457e-07 1.53174e-05 -8.91372e-07
-2.35478e-07 1.73328e-05 -1.00719e-06
2.54452e-07 -3.22573e-09 7.4925e-09
2.56179e-07 -3.30688e-09 -1.01417e-09
2.47462e-07 -3.28334e-09 -2.07577e-08
-4.83455e-07 2.03717e-05 -1.0914e-06
-5.99419e-07 2.05779e-05 -1.02008e-06
2.60409e-07 -3.31106e-09 7.52429e-09
2.61548e-07 -3.3872e-09 -1.2641e-09
2.52138e-07 -3.34011e-09 -2.11241e-08
-4.81807e-07 2.03678e-05 -1.08292e-06
-5.68948e-07 2.05735e-05 -9.8339e-07
2.61245e-07 -3.33627e-09 7.33414e-09
2.62754e-07 -3.40717e-09 -1.44937e-09
2.54214e-07 -3.36009e-09 -2.13598e-08
-4.51992e-07 2.03629e-05 -1.06415e-06
-5.33355e-07 2.0569e-05 -9.54903e-07
2.64037e-07 -3.50439e-09 -2.28137e-08
2.71764e-07 -3.46999e-09 7.62426e-09
2.73115e-07 -3.5466e-09 -1.91588e-09
-4.75136e-07 2.03589e-05 -1.07597e-06
-5.05065e-07 2.05644e-05 -9.34597e-07
2.67186e-07 -3.56576e-09 -2.40756e-08
2.73724e-07 -3.5087e-09 7.36689e-09
2.75915e-07 -3.59217e-09 -2.1777e-09
-4.83459e-07 2.03547e-05 -1.07683e-06
-5.35638e-07 2.05599e-05 -9.54033e-07
2.67508e-07 -3.59191e-09 -2.49411e-08
2.73874e-07 -3.52518e-09 6.93579e-09
2.76198e-07 -3.60698e-09 -2.42929e-09
-5.06295e-07 2.03511e-05 -1.0862e-06
-5.74238e-07 2.05553e-05 -9.70718e-07
2.77017e-07 -3.57755e-09 6.74104e-09
2.79464e-07 -3.65853e-09 -2.8072e-09
2.40411e-07 -2.78289e-09 6.24724e-09
2.45843e-07 -3.04947e-09 5.57886e-09
-3.62998e-07 1.91495e-05 -1.06636e-06
-1.61411e-07 1.53142e-05 -8.93545e-07
-2.34758e-07 1.73295e-05 -1.00386e-06
2.46495e-07 -2.86417e-09 6.29589e-09
2.51936e-07 -3.13714e-09 5.45024e-09
-3.63414e-07 1.91461e-05 -1.05051e-06
-1.62136e-07 1.53109e-05 -8.94845e-07
-2.31836e-07 1.73262e-05 -9.89812e-07
2.471e-07 -2.89196e-09 6.03409e-09
2.52686e-07 -3.16102e-09 5.42584e-09
-3.31646e-07 1.91419e-05 -1.02499e-06
-1.51281e-07 1.53082e-05 -8.74527e-07
-2.11149e-07 1.73223e-05 -9.71876e-07
2.5687e-07 -3.01778e-09 6.01015e-09
2.62693e-07 -3.29841e-09 5.56839e-09
-3.45202e-07 1.91377e-05 -1.03291e-06
-1.60686e-07 1.53048e-05 -8.78797e-07
-2.13911e-07 1.73186e-05 -9.62437e-07
2.5812e-07 -3.04838e-09 5.56494e-09
2.64161e-07 -3.32896e-09 5.38276e-09
-3.4489e-07 1.91337e-05 -1.02726e-06
-1.66221e-07 1.53015e-05 -8.77796e-07
-2.15594e-07 1.73151e-05 -9.52309e-07
2.64482e-07 -3.3491e-09 5.16242e-09
2.58521e-07 -3.07263e-09 5.37632e-09
-3.68797e-07 1.913e-05 -1.02706e-06
-1.71626e-07 1.52985e-05 -8.68366e-07
-2.23669e-07 1.7312e-05 -9.42519e-07
2.67619e-07 -3.39732e-09 5.16999e-09
2.61651e-07 -3.12436e-09 5.24734e-09
-9.4155e-08 1.17072e-05 -7.62274e-07
1.79741e-07 -1.29064e-09 4.81472e-09
-7.84194e-08 1.17059e-05 -7.42213e-07
1.79939e-07 -1.29347e-09 4.86925e-09
-8.05272e-08 1.17039e-05 -7.3972e-07
1.82834e-07 -1.31909e-09 4.9511e-09
1.87102e-07 -1.36647e-09 4.88326e-09
-8.11852e-08 1.17018e-05 -7.43644e-07
-8.16737e-08 1.16998e-05 -7.34507e-07
1.87324e-07 -1.37782e-09 4.79286e-09
1.87632e-07 -1.56469e-09 5.16401e-09
-5.96436e-08 1.02106e-05 -6.49534e-07
-8.07179e-08 1.16981e-05 -7.27734e-07
1.90859e-07 -1.41357e-09 4.76551e-09
1.91168e-07 -1.60435e-09 5.17575e-09
-9.23365e-08 1.34182e-05 -8.05432e-07
1.87505e-07 -1.55257e-09 5.30515e-09
1.91524e-07 -1.89197e-09 5.39665e-09
-9.31339e-08 1.34203e-05 -8.1113e-07
1.8309e-07 -1.49634e-09 5.42984e-09
1.87775e-07 -1.8443e-09 5.48213e-09
-1.01755e-07 1.34229e-05 -8.11499e-07
1.80233e-07 -1.46555e-09 5.45323e-09
1.87553e-07 -1.83324e-09 5.59274e-09
-1.03214e-07 1.3425e-05 -8.14092e-07
1.80151e-07 -1.45843e-09 5.55314e-09
1.83097e-07 -1.76971e-09 5.8093e-09
-1.00889e-07 1.34272e-05 -8.18069e-07
-4.47129e-08 7.73078e-06 -5.01184e-07
-5.2335e-08 8.91532e-06 -5.80405e-07
-6.72592e-08 1.02184e-05 -6.60866e-07
-5.67142e-08 1.02174e-05 -6.44911e-07
-5.94809e-08 1.02156e-05 -6.50636e-07
-6.0383e-08 1.02137e-05 -6.56322e-07
-6.10374e-08 1.02121e-05 -6.54595e-07
1.83008e-07 -7.10719e-10 4.58649e-09
1.81447e-07 -8.68634e-10 5.19585e-09
1.80598e-07 -1.07693e-09 4.97717e-09
-3.99941e-08 7.72981e-06 -4.95712e-07
-4.59264e-08 8.91435e-06 -5.71289e-07
1.834e-07 -7.13563e-10 4.70553e-09
1.8183e-07 -8.72989e-10 5.26651e-09
1.80904e-07 -1.08608e-09 4.87779e-09
-4.20699e-08 7.72857e-06 -4.985e-07
-4.85229e-08 8.91283e-06 -5.77285e-07
1.86426e-07 -7.30902e-10 4.91745e-09
1.84836e-07 -8.94627e-10 5.41492e-09
1.83911e-07 -1.10787e-09 5.02684e-09
1.90397e-07 -7.56444e-10 5.0043e-09
1.88885e-07 -9.2932e-10 5.38778e-09
-4.81819e-08 8.91134e-06 -5.79399e-07
-4.0417e-08 7.7272e-06 -5.00799e-07
1.88086e-07 -1.14882e-09 4.96479e-09
-4.82076e-08 8.90992e-06 -5.79116e-07
-4.04381e-08 7.72598e-06 -5.00429e-07
1.90669e-07 -7.64163e-10 4.91074e-09
1.89159e-07 -9.39311e-10 5.29932e-09
1.88375e-07 -1.16004e-09 4.88554e-09
-4.01426e-08 7.72486e-06 -4.98454e-07
-4.63039e-08 8.90852e-06 -5.77281e-07
1.94276e-07 -7.87367e-10 4.94021e-09
1.92644e-07 -9.69547e-10 5.21737e-09
1.91858e-07 -1.19275e-09 4.84382e-09
-7.53518e-08 1.16962e-05 -7.25119e-07
-5.63772e-08 1.02087e-05 -6.50834e-07
-8.91701e-08 1.3416e-05 -8.00097e-07
1.95877e-07 -1.4548e-09 4.82097e-09
1.96269e-07 -1.6515e-09 5.1895e-09
1.96759e-07 -1.95492e-09 5.28715e-09
-7.16054e-08 1.16945e-05 -7.22777e-07
-5.44937e-08 1.02072e-05 -6.44973e-07
1.95048e-07 -1.45596e-09 4.9056e-09
-8.10052e-08 1.34142e-05 -7.9235e-07
-7.16131e-08 1.16924e-05 -7.28841e-07
-5.53723e-08 1.02054e-05 -6.49372e-07
1.95382e-07 -1.6554e-09 5.07155e-09
-7.58501e-08 1.3412e-05 -7.89601e-07
1.95871e-07 -1.96172e-09 5.06214e-09
2.0306e-07 -1.52711e-09 5.08724e-09
2.03585e-07 -1.73614e-09 5.16113e-09
2.04346e-07 -2.05384e-09 5.27606e-09
-6.12536e-08 1.02037e-05 -6.48626e-07
-7.40704e-08 1.16905e-05 -7.30871e-07
-7.81011e-08 1.34097e-05 -7.98875e-07
2.02255e-07 -1.54213e-09 4.90952e-09
2.02685e-07 -1.74661e-09 5.01783e-09
2.03556e-07 -2.05801e-09 5.22688e-09
-5.74885e-08 1.02023e-05 -6.4331e-07
-6.69086e-08 1.16891e-05 -7.15713e-07
-7.10537e-08 1.3408e-05 -7.84093e-07
2.10534e-07 -2.13652e-09 5.56451e-09
2.09008e-07 -1.60374e-09 5.00289e-09
2.09471e-07 -1.8161e-09 5.12648e-09
-6.10268e-08 1.02003e-05 -6.47515e-07
-6.91969e-08 1.16868e-05 -7.2339e-07
-7.85987e-08 1.34053e-05 -7.94869e-07
2.13605e-07 -2.17285e-09 5.94845e-09
2.11862e-07 -1.63126e-09 5.02458e-09
2.12294e-07 -1.84948e-09 5.166e-09
-6.04007e-08 1.01982e-05 -6.50351e-07
-6.53766e-08 1.16846e-05 -7.14562e-07
-8.22089e-08 1.34029e-05 -7.94954e-07
-4.03349e-08 7.72361e-06 -4.99709e-07
-4.5811e-08 8.90702e-06 -5.79422e-07
1.99266e-07 -8.11236e-10 5.05923e-09
1.97674e-07 -9.99947e-10 5.33131e-09
1.96899e-07 -1.23024e-09 4.86464e-09
-3.77367e-08 7.72241e-06 -4.96579e-07
-4.2243e-08 8.90565e-06 -5.75346e-07
1.98385e-07 -8.15237e-10 5.16361e-09
1.96808e-07 -1.0045e-09 5.38162e-09
1.96101e-07 -1.2386e-09 4.81065e-09
-3.67415e-08 7.72112e-06 -4.97553e-07
-4.17155e-08 8.90412e-06 -5.77163e-07
2.06297e-07 -8.56879e-10 5.36118e-09
2.04718e-07 -1.05668e-09 5.52157e-09
2.04116e-07 -1.30182e-09 4.8995e-09
-4.34717e-08 8.90255e-06 -5.77412e-07
-3.73276e-08 7.71971e-06 -4.98608e-07
2.05816e-07 -8.66924e-10 5.20744e-09
2.0414e-07 -1.06983e-09 5.33391e-09
2.03496e-07 -1.31702e-09 4.70043e-09
-3.53904e-08 7.71863e-06 -4.95004e-07
-3.92848e-08 8.90129e-06 -5.72693e-07
2.12726e-07 -9.00935e-10 5.3315e-09
2.10978e-07 -1.11489e-09 5.33722e-09
2.10311e-07 -1.36863e-09 4.81111e-09
-3.55e-08 7.71711e-06 -4.95764e-07
-3.91976e-08 8.89954e-06 -5.73771e-07
2.1578e-07 -9.21166e-10 5.37911e-09
2.13914e-07 -1.13773e-09 5.38417e-09
2.13277e-07 -1.39576e-09 4.75232e-09
-3.52592e-08 7.71561e-06 -4.96729e-07
-3.85943e-08 8.89787e-06 -5.73638e-07
-2.28153e-08 6.6078e-06 -4.32706e-07
-1.43276e-08 4.41017e-06 -2.94072e-07
-1.22019e-08 5.50749e-06 -3.65085e-07
1.82425e-07 -4.5277e-10 2.91206e-09
1.83623e-07 -3.92521e-10 2.52683e-09
1.82667e-07 -6.03039e-10 3.03838e-09
-2.15551e-08 6.6069e-06 -4.3073e-07
-1.34955e-08 4.40963e-06 -2.91412e-07
-9.54762e-09 5.50679e-06 -3.61937e-07
-2.53866e-08 6.60362e-06 -4.32887e-07
-2.58822e-08 6.60269e-06 -4.31062e-07
1.82845e-07 -4.57767e-10 2.84447e-09
1.84053e-07 -3.94692e-10 2.5135e-09
1.831e-07 -6.0773e-10 2.96154e-09
-2.39695e-08 6.60581e-06 -4.33101e-07
-2.64329e-08 6.60456e-06 -4.36993e-07
-1.25993e-08 4.40886e-06 -2.92459e-07
-8.61806e-09 5.50589e-06 -3.63276e-07
-1.27255e-08 4.40806e-06 -2.94604e-07
1.85846e-07 -4.6864e-10 2.84226e-09
1.87096e-07 -4.03256e-10 2.53288e-09
-8.67565e-09 5.50486e-06 -3.6651e-07
1.86097e-07 -6.2086e-10 2.96173e-09
1.8959e-07 -4.86435e-10 2.81192e-09
1.9076e-07 -4.17227e-10 2.52077e-09
1.89901e-07 -6.40276e-10 2.96906e-09
-1.26135e-08 4.40737e-06 -2.94975e-07
-8.85274e-09 5.50408e-06 -3.65335e-07
1.91056e-07 -4.206e-10 2.49443e-09
1.89848e-07 -4.91192e-10 2.79477e-09
1.90239e-07 -6.49018e-10 2.84951e-09
-1.24251e-08 4.40676e-06 -2.94622e-07
-8.53135e-09 5.50326e-06 -3.64929e-07
1.93595e-07 -5.08851e-10 2.73007e-09
1.94841e-07 -4.32218e-10 2.52847e-09
1.93933e-07 -6.72738e-10 2.71561e-09
-3.9733e-09 2.20718e-06 -1.47533e-07
-1.39068e-11 1.10353e-06 -7.39543e-08
-1.20617e-14 -7.97921e-12 5.35956e-13
-7.90126e-09 3.30996e-06 -2.21688e-07
1.84129e-07 -2.47899e-10 2.52471e-09
1.84575e-07 -1.20974e-10 2.48727e-09
1.84421e-07 -1.77171e-10 -7.31381e-10
-3.59751e-09 2.2069e-06 -1.46457e-07
-7.31175e-09 3.30953e-06 -2.20053e-07
1.69398e-10 1.10337e-06 -7.3532e-08
1.84573e-07 -2.51097e-10 2.505e-09
1.84984e-07 -1.23417e-10 2.46407e-09
1.84866e-07 -1.80103e-10 -7.56911e-10
-6.8253e-09 3.30897e-06 -2.20546e-07
-7.09582e-09 3.30835e-06 -2.22413e-07
-6.97203e-09 3.30779e-06 -2.22825e-07
-7.06559e-09 3.3073e-06 -2.22988e-07
-3.2663e-09 2.20652e-06 -1.46834e-07
2.52195e-10 1.10318e-06 -7.36058e-08
-1.16497e-14 -8.17567e-12 5.45995e-13
-3.49357e-09 2.20611e-06 -1.48112e-07
1.50984e-10 1.10298e-06 -7.42232e-08
-1.07282e-14 -8.28783e-12 5.59075e-13
1.87945e-07 -1.84854e-10 -7.87862e-10
1.87595e-07 -2.57684e-10 2.53122e-09
1.88065e-07 -1.27939e-10 2.48222e-09
1.91508e-07 -1.89847e-10 -7.23394e-10
1.91207e-07 -2.70385e-10 2.53163e-09
1.91641e-07 -1.34069e-10 2.55735e-09
-3.24126e-09 2.20574e-06 -1.48223e-07
1.69697e-10 1.1028e-06 -7.42367e-08
-1.09949e-14 -8.4138e-12 5.67258e-13
1.91512e-07 -2.73661e-10 2.53438e-09
1.91944e-07 -1.36807e-10 2.56836e-09
1.91782e-07 -1.89899e-10 -6.80536e-10
-3.03221e-09 2.20544e-06 -1.47926e-07
2.32113e-10 1.10264e-06 -7.42155e-08
1.9539e-07 -2.82971e-10 2.56721e-09
1.95849e-07 -1.40974e-10 2.63931e-09
1.95654e-07 -1.9339e-10 -6.65423e-10
-2.84828e-09 2.20503e-06 -1.48651e-07
-1.21673e-14 -8.66303e-12 5.86479e-13
2.8647e-10 1.10244e-06 -7.45398e-08
-2.62742e-08 6.60156e-06 -4.31157e-07
-1.18988e-08 4.40592e-06 -2.95957e-07
-7.99561e-09 5.50224e-06 -3.66441e-07
1.98556e-07 -5.27206e-10 2.72119e-09
1.9982e-07 -4.47346e-10 2.53698e-09
1.9895e-07 -6.94892e-10 2.69085e-09
-2.75193e-08 6.59823e-06 -4.29878e-07
-2.77003e-08 6.59719e-06 -4.28337e-07
-2.8264e-08 6.59588e-06 -4.28921e-07
-2.86425e-08 6.5945e-06 -4.31066e-07
-2.54284e-08 6.60037e-06 -4.30862e-07
-1.10881e-08 4.40511e-06 -2.9677e-07
-6.73819e-09 5.50127e-06 -3.66296e-07
-2.6276e-08 6.59931e-06 -4.29721e-07
1.97715e-07 -5.32597e-10 2.63946e-09
1.98964e-07 -4.50036e-10 2.48212e-09
1.98049e-07 -6.98079e-10 2.66003e-09
-1.15317e-08 4.40443e-06 -2.96825e-07
-6.45977e-09 5.50037e-06 -3.65776e-07
2.06729e-07 -4.73144e-10 2.57413e-09
2.05439e-07 -5.59523e-10 2.75417e-09
2.05883e-07 -7.35009e-10 2.68025e-09
-1.20664e-08 4.4037e-06 -2.97514e-07
-7.14992e-09 5.4995e-06 -3.65255e-07
2.05142e-07 -5.66446e-10 2.67271e-09
2.06408e-07 -4.77864e-10 2.53329e-09
2.05519e-07 -7.45229e-10 2.54961e-09
-1.14637e-08 4.40301e-06 -2.95034e-07
-7.47005e-09 5.49861e-06 -3.63246e-07
2.12022e-07 -5.89395e-10 2.75019e-09
2.13287e-07 -4.96369e-10 2.60938e-09
2.12469e-07 -7.74297e-10 2.63866e-09
-1.11217e-08 4.4022e-06 -2.95333e-07
-6.85473e-09 5.49748e-06 -3.64789e-07
2.15218e-07 -6.06955e-10 2.68885e-09
2.16542e-07 -5.08302e-10 2.6072e-09
2.15544e-07 -7.92108e-10 2.65321e-09
-1.17481e-08 4.40136e-06 -2.95803e-07
-6.33118e-09 5.49642e-06 -3.66232e-07
-7.14346e-09 3.30673e-06 -2.23675e-07
2.00331e-07 -2.92027e-10 2.62739e-09
2.00793e-07 -1.4724e-10 2.66892e-09
2.00626e-07 -2.00783e-10 -7.20092e-10
-6.66579e-09 3.30612e-06 -2.24234e-07
-2.56988e-09 2.20463e-06 -1.49032e-07
3.68046e-10 1.10223e-06 -7.47089e-08
-3.65137e-15 -8.82074e-12 5.98979e-13
1.99483e-07 -2.94005e-10 2.60158e-09
1.99942e-07 -1.48495e-10 2.65685e-09
1.99765e-07 -2.00998e-10 -7.19339e-10
-7.34128e-09 3.30561e-06 -2.24195e-07
-7.61012e-09 3.30504e-06 -2.24909e-07
-7.71359e-09 3.30451e-06 -2.23522e-07
-7.69646e-09 3.30392e-06 -2.23738e-07
-8.39821e-09 3.30329e-06 -2.24172e-07
-2.78595e-09 2.20427e-06 -1.49286e-07
2.15343e-10 1.10206e-06 -7.48289e-08
2.07219e-07 -3.10893e-10 2.70796e-09
2.07663e-07 -1.58584e-10 2.78532e-09
2.07458e-07 -2.09513e-10 -6.71641e-10
-2.82059e-09 2.20389e-06 -1.50059e-07
2.44629e-10 1.10188e-06 -7.51716e-08
2.07011e-07 -3.13917e-10 2.70003e-09
2.07477e-07 -1.60476e-10 2.80095e-09
2.0722e-07 -2.09169e-10 -6.34758e-10
-2.79355e-09 2.20355e-06 -1.48724e-07