# vtk DataFile Version 3.0
vtk output
ASCII
DATASET POLYDATA
POINTS 40299 float
0.354471 1.78262 -0.108755
0.365028 1.77756 -0.108579
0.333277 1.78278 -0.108504
0.354525 1.77264 -0.108116
0.343942 1.77771 -0.108259
0.312291 1.783 -0.107729
0.365079 1.76758 -0.10792
0.333339 1.7728 -0.107882
0.322764 1.7779 -0.107868
0.427428 1.78724 -0.110082
0.458534 1.78215 -0.110059
0.448188 1.78717 -0.11023
0.468872 1.78714 -0.110199
0.48953 1.78712 -0.110106
0.396374 1.78237 -0.109495
0.417049 1.78227 -0.109854
0.43781 1.78222 -0.109659
0.448206 1.7772 -0.109575
0.468879 1.77716 -0.109542
0.479199 1.78214 -0.109776
0.41708 1.77229 -0.109209
0.406696 1.77733 -0.109342
0.427453 1.77726 -0.109423
0.458536 1.77218 -0.109405
0.489514 1.77714 -0.109449
0.375438 1.78249 -0.109024
0.396414 1.77239 -0.108866
0.385996 1.77744 -0.108959
0.448221 1.76722 -0.108922
0.468884 1.76718 -0.108886
0.489521 1.76717 -0.108792
0.437834 1.77225 -0.109011
0.479196 1.77216 -0.109122
0.417116 1.76232 -0.108552
0.406733 1.76735 -0.108701
0.427481 1.76728 -0.108764
0.375494 1.77251 -0.1084
0.45855 1.7622 -0.108746
0.47921 1.76219 -0.108463
0.499809 1.76216 -0.108581
0.40677 1.75738 -0.10806
0.427513 1.7573 -0.108103
0.396458 1.76241 -0.108239
0.386055 1.76746 -0.108334
0.458564 1.75222 -0.108091
0.44824 1.75724 -0.108262
0.468888 1.7572 -0.108227
0.489512 1.75719 -0.108137
0.437864 1.76227 -0.10835
0.417155 1.75234 -0.107895
0.386101 1.75748 -0.107714
0.37556 1.76253 -0.107825
0.437894 1.75229 -0.107694
0.479206 1.75221 -0.107805
0.290844 1.78321 -0.107394
0.354581 1.76266 -0.107468
0.344016 1.76772 -0.107609
0.406805 1.74739 -0.10743
0.42754 1.74732 -0.107443
0.396507 1.75244 -0.107594
0.458573 1.74224 -0.107429
0.448253 1.74726 -0.107601
0.468891 1.74723 -0.107564
0.489507 1.74721 -0.107476
0.245338 1.84372 -0.10933
0.233917 1.84888 -0.109459
0.245512 1.83373 -0.108683
0.234105 1.83889 -0.10882
0.222568 1.84406 -0.108775
0.210555 1.84924 -0.108708
0.245694 1.82375 -0.108041
0.234301 1.8289 -0.10819
0.222787 1.83407 -0.10815
0.210783 1.83925 -0.108148
0.198264 1.84444 -0.107851
0.234434 1.81891 -0.107626
0.222978 1.82408 -0.10758
0.185574 1.84964 -0.107589
0.245874 1.81376 -0.107402
0.211028 1.82926 -0.107532
0.19851 1.83445 -0.10733
0.172166 1.87484 -0.108632
0.1718 1.88483 -0.109245
0.171414 1.89483 -0.109875
0.171047 1.90482 -0.110497
0.158245 1.91004 -0.109572
0.158752 1.90005 -0.108894
0.159115 1.89005 -0.108353
0.172566 1.86485 -0.107958
0.15949 1.88006 -0.107791
0.172925 1.85486 -0.10737
0.159896 1.87006 -0.107205
0.1461 1.90527 -0.107211
0.245155 1.85371 -0.109994
0.222334 1.85405 -0.109417
0.198033 1.85444 -0.108382
0.183687 1.9096 -0.111292
0.233693 1.85886 -0.110128
0.2103 1.85923 -0.109325
0.185316 1.85964 -0.1081
0.184025 1.89961 -0.110636
0.184993 1.86963 -0.108743
0.244983 1.86369 -0.110652
0.233483 1.86885 -0.110806
0.222089 1.86404 -0.110075
0.210046 1.86922 -0.109956
0.197757 1.86443 -0.108968
0.184655 1.87962 -0.109396
0.184342 1.88961 -0.110014
0.244824 1.87368 -0.111304
0.22187 1.87402 -0.110723
0.197496 1.87442 -0.109532
0.233297 1.87884 -0.111463
0.209805 1.87921 -0.110554
0.244662 1.88366 -0.111919
0.221668 1.88401 -0.111322
0.197248 1.88441 -0.110051
0.233104 1.88882 -0.112104
0.209583 1.8892 -0.111113
0.232922 1.89881 -0.11272
0.24449 1.89365 -0.112572
0.221441 1.894 -0.111967
0.196963 1.8944 -0.110655
0.244318 1.90363 -0.113213
0.221231 1.90399 -0.112587
0.209354 1.89919 -0.111713
0.232758 1.9088 -0.11331
0.209127 1.90917 -0.11231
0.196712 1.90439 -0.111207
0.244158 1.91362 -0.113841
0.170701 1.91481 -0.11109
0.145666 1.91526 -0.107715
0.157819 1.92003 -0.110151
0.170263 1.9248 -0.111809
0.145255 1.92526 -0.108256
0.182944 1.92958 -0.112688
0.157337 1.93002 -0.110833
0.169849 1.9348 -0.112492
0.18266 1.93957 -0.113303
0.144613 1.93525 -0.108976
0.169527 1.94479 -0.113073
0.156872 1.94001 -0.111496
0.1824 1.94956 -0.113851
0.156503 1.95001 -0.112041
0.144177 1.94524 -0.109486
0.16924 1.95478 -0.113611
0.143684 1.95524 -0.11006
0.182122 1.95955 -0.114434
0.156107 1.96 -0.112619
0.168912 1.96477 -0.114196
0.143259 1.96523 -0.110516
0.181836 1.96954 -0.115002
0.155767 1.96999 -0.113128
0.168581 1.97475 -0.114759
0.142821 1.97522 -0.11106
0.13085 1.97047 -0.107699
0.221008 1.91397 -0.11321
0.196426 1.91438 -0.11182
0.232547 1.91878 -0.11394
0.183332 1.91959 -0.111952
0.208884 1.91916 -0.112879
0.243969 1.9236 -0.11447
0.220794 1.92396 -0.113843
0.196142 1.92437 -0.112439
0.232348 1.92877 -0.114581
0.208646 1.92915 -0.113498
0.2438 1.93359 -0.115098
0.220603 1.93395 -0.114425
0.195839 1.93436 -0.113111
0.232162 1.93875 -0.11519
0.2084 1.93914 -0.114104
0.243644 1.94357 -0.115683
0.220411 1.94393 -0.115009
0.195574 1.94434 -0.113738
0.231973 1.94874 -0.115777
0.208177 1.94913 -0.114668
0.195316 1.95433 -0.114303
0.243461 1.95356 -0.116266
0.220206 1.95392 -0.115574
0.231778 1.95873 -0.116354
0.207966 1.95912 -0.11519
0.195096 1.96432 -0.114854
0.243306 1.96354 -0.116852
0.219998 1.96391 -0.116159
0.231603 1.96871 -0.116936
0.20773 1.9691 -0.115772
0.194863 1.97431 -0.115396
0.243149 1.97353 -0.117435
0.21984 1.97389 -0.11668
0.181527 1.97953 -0.115584
0.155417 1.97998 -0.113662
0.130426 1.98046 -0.108157
0.168241 1.98474 -0.115306
0.142357 1.98522 -0.111553
0.181234 1.98951 -0.116134
0.155038 1.98997 -0.1142
0.129859 1.99046 -0.108745
0.167952 1.99473 -0.115809
0.141781 1.99521 -0.112175
0.180946 1.9995 -0.116673
0.154667 1.99996 -0.114696
0.12919 2.00045 -0.109384
0.167617 2.00472 -0.116345
0.141318 2.0052 -0.112748
0.18065 2.00949 -0.117213
0.154303 2.00995 -0.115223
0.128615 2.01044 -0.109942
0.167335 2.01471 -0.116856
0.140952 2.01519 -0.113214
0.180406 2.01948 -0.117739
0.15396 2.01994 -0.115765
0.128041 2.02043 -0.11047
0.16704 2.0247 -0.117406
0.140524 2.02518 -0.113801
0.127665 2.03042 -0.110932
0.180103 2.02947 -0.118329
0.153692 2.02993 -0.116226
0.166771 2.03469 -0.117907
0.140164 2.03517 -0.11433
0.12737 2.04041 -0.111344
0.179845 2.03945 -0.118865
0.153398 2.03992 -0.116738
0.231431 1.9787 -0.117511
0.207496 1.97909 -0.11632
0.194597 1.98429 -0.115975
0.242957 1.98351 -0.11805
0.219629 1.98388 -0.117231
0.231239 1.98868 -0.118095
0.207287 1.98908 -0.116783
0.194343 1.99428 -0.116531
0.242761 1.99349 -0.118673
0.219416 1.99387 -0.117807
0.231036 1.99867 -0.118691
0.207041 1.99907 -0.117354
0.194074 2.00427 -0.117092
0.242582 2.00348 -0.11928
0.219199 2.00385 -0.118383
0.230834 2.00865 -0.119284
0.206797 2.00905 -0.117906
0.19384 2.01426 -0.117618
0.242432 2.01346 -0.119864
0.218996 2.01384 -0.118933
0.230696 2.01864 -0.119831
0.206587 2.01904 -0.118484
0.193591 2.02425 -0.118158
0.242253 2.02345 -0.120465
0.218791 2.02382 -0.119513
0.230522 2.02862 -0.120412
0.206349 2.02902 -0.119093
0.193376 2.03424 -0.118703
0.242096 2.03343 -0.121037
0.218625 2.03381 -0.120032
0.230382 2.0386 -0.120957
0.206134 2.03901 -0.11967
0.30155 1.78809 -0.107836
0.301428 1.79808 -0.108456
0.290713 1.79319 -0.108041
0.290564 1.80318 -0.108711
0.301303 1.80806 -0.109097
0.279637 1.8083 -0.108628
0.290433 1.81316 -0.109346
0.301176 1.81805 -0.109703
0.2903 1.82315 -0.109955
0.301055 1.82803 -0.110347
0.290147 1.83313 -0.110604
0.300934 1.83801 -0.111028
0.300804 1.84799 -0.111682
0.290015 1.84311 -0.111268
0.279042 1.84823 -0.111079
0.279189 1.83825 -0.110494
0.268 1.8434 -0.110035
0.279346 1.82826 -0.109869
0.256469 1.84855 -0.109742
0.268171 1.83342 -0.109419
0.279501 1.81828 -0.109252
0.256646 1.83857 -0.109158
0.268357 1.82343 -0.108817
0.256837 1.82858 -0.108534
0.279771 1.79831 -0.108039
0.268521 1.81344 -0.108204
0.256984 1.8186 -0.107943
0.279934 1.78832 -0.107401
0.268686 1.80346 -0.107581
0.25716 1.80861 -0.107349
0.364992 1.78754 -0.109238
0.354419 1.7926 -0.109394
0.333203 1.79277 -0.109144
0.343888 1.78769 -0.108907
0.322677 1.78788 -0.108534
0.364917 1.79752 -0.1099
0.343814 1.79767 -0.10956
0.32258 1.79786 -0.10917
0.312187 1.79298 -0.108391
0.333094 1.80275 -0.109805
0.354334 1.80258 -0.110059
0.312093 1.80296 -0.109045
0.364823 1.8075 -0.110569
0.343706 1.80765 -0.110203
0.322473 1.80784 -0.109807
0.354235 1.81256 -0.110716
0.332999 1.81273 -0.110444
0.311979 1.81294 -0.109697
0.31184 1.82293 -0.110304
0.311732 1.83291 -0.110973
0.311626 1.84289 -0.111653
0.364768 1.81748 -0.11123
0.343618 1.81763 -0.110846
0.322383 1.81783 -0.110419
0.354172 1.82254 -0.111377
0.332903 1.82271 -0.111087
0.364727 1.82746 -0.111907
0.343558 1.82761 -0.111523
0.322289 1.82781 -0.111063
0.354142 1.83252 -0.11205
0.332848 1.83269 -0.111766
0.364713 1.83744 -0.112582
0.34352 1.83759 -0.112204
0.32222 1.83779 -0.111757
0.364671 1.84741 -0.113246
0.343454 1.84757 -0.112842
0.332784 1.84267 -0.112421
0.354095 1.8425 -0.112708
0.32213 1.84777 -0.112408
0.289867 1.85309 -0.111918
0.267838 1.85338 -0.110677
0.300672 1.85797 -0.112337
0.278895 1.85822 -0.1117
0.256282 1.85854 -0.110371
0.289724 1.86308 -0.112558
0.267665 1.86337 -0.111294
0.300541 1.86796 -0.112988
0.278777 1.8682 -0.112318
0.256093 1.86852 -0.110986
0.289589 1.87306 -0.113179
0.267539 1.87335 -0.111895
0.30038 1.87794 -0.113617
0.27864 1.87818 -0.112953
0.255929 1.87851 -0.111571
0.289468 1.88304 -0.113795
0.300287 1.88792 -0.114289
0.26738 1.88334 -0.112501
0.28935 1.89302 -0.114459
0.278506 1.88817 -0.113569
0.26722 1.89332 -0.113089
0.255777 1.88849 -0.112146
0.300158 1.8979 -0.11492
0.27838 1.89815 -0.114197
0.255573 1.89848 -0.112792
0.289241 1.903 -0.115074
0.267063 1.9033 -0.113718
0.300064 1.90788 -0.115512
0.278247 1.90813 -0.114797
0.255392 1.90846 -0.113399
0.289104 1.91299 -0.115645
0.2669 1.91329 -0.114311
0.311517 1.85287 -0.112307
0.332702 1.85265 -0.113082
0.354037 1.85248 -0.11337
0.364568 1.85739 -0.113922
0.343359 1.85755 -0.113498
0.322029 1.85775 -0.113063
0.311393 1.86285 -0.112956
0.353929 1.86246 -0.114038
0.332593 1.86263 -0.113732
0.311065 1.8928 -0.114874
0.310957 1.90278 -0.115495
0.310833 1.91276 -0.116091
0.364501 1.86737 -0.114582
0.343266 1.86753 -0.114136
0.321921 1.86773 -0.113689
0.311272 1.87284 -0.113594
0.311159 1.88282 -0.114226
[...]
POINT_DATA 40299
VECTORS alpha float
-4.48485e-08 7.73431e-06 -4.99736e-07
1.71973e-07 -6.65282e-10 4.4934e-09
-5.04084e-08 8.9196e-06 -5.74339e-07
-4.3505e-08 7.73554e-06 -4.97894e-07
1.70361e-07 -8.00622e-10 5.2943e-09
-6.58347e-08 1.02232e-05 -6.56199e-07
1.68098e-07 -6.4332e-10 4.41805e-09
-5.06153e-08 8.92095e-06 -5.73018e-07
1.69325e-07 -9.89876e-10 5.18964e-09
1.72541e-07 -3.71219e-10 2.41797e-09
-4.00764e-09 2.20827e-06 -1.4651e-07
1.73027e-07 -2.26543e-10 2.49814e-09
1.73461e-07 -1.11927e-10 2.34105e-09
1.73369e-07 -1.69047e-10 -7.69792e-10
-1.25354e-08 5.51015e-06 -3.62733e-07
-1.43933e-08 4.4123e-06 -2.91761e-07
-7.45389e-09 3.31156e-06 -2.20635e-07
1.7314e-07 -2.20785e-10 2.55779e-09
1.73562e-07 -1.0864e-10 2.36015e-09
1.60893e-10 1.10406e-06 -7.35444e-08
-1.44362e-08 4.41293e-06 -2.92369e-07
1.71433e-07 -4.16235e-10 2.99739e-09
1.72619e-07 -3.66191e-10 2.47784e-09
-3.59761e-09 2.20857e-06 -1.47025e-07
1.73433e-07 -1.67748e-10 -7.97819e-10
-1.7475e-08 6.61092e-06 -4.27548e-07
-1.34369e-08 5.51094e-06 -3.62821e-07
1.7149e-07 -5.47606e-10 3.32692e-09
1.69043e-07 -2.10728e-10 2.55461e-09
1.69428e-07 -1.02894e-10 2.32097e-09
1.69328e-07 -1.62712e-10 -7.80116e-10
-7.20339e-09 3.31202e-06 -2.21253e-07
3.42036e-10 1.10421e-06 -7.38815e-08
-1.37107e-08 4.41354e-06 -2.93139e-07
1.67458e-07 -3.99731e-10 3.03598e-09
1.68563e-07 -3.54154e-10 2.4531e-09
-1.72084e-08 6.61204e-06 -4.24931e-07
-3.32946e-09 2.20885e-06 -1.47778e-07
5.23506e-10 1.10436e-06 -7.41328e-08
3.27722e-15 -6.60262e-12 4.44134e-13
1.72541e-07 -4.03439e-10 3.2311e-09
1.73567e-07 -3.62683e-10 2.52033e-09
-1.25684e-08 5.51177e-06 -3.62018e-07
1.67512e-07 -5.25884e-10 3.39364e-09
-3.17676e-09 2.20913e-06 -1.47972e-07
1.73984e-07 -2.13461e-10 2.67181e-09
1.74334e-07 -1.05413e-10 2.3807e-09
1.7422e-07 -1.69561e-10 -8.58065e-10
-5.89286e-09 3.31247e-06 -2.21866e-07
-1.42346e-08 4.41405e-06 -2.94468e-07
1.72663e-07 -5.30483e-10 3.65186e-09
-1.64593e-08 6.61295e-06 -4.25884e-07
-5.85342e-09 3.31289e-06 -2.22434e-07
7.10364e-10 1.1045e-06 -7.42551e-08
-8.58474e-08 1.17126e-05 -7.34854e-07
-3.86657e-08 7.73673e-06 -4.96016e-07
1.66557e-07 -7.7465e-10 5.25897e-09
1.6877e-07 -3.86162e-10 3.30406e-09
1.69718e-07 -3.51778e-10 2.4975e-09
-1.42852e-08 5.51253e-06 -3.62091e-07
-2.93737e-09 2.20941e-06 -1.47815e-07
1.70121e-07 -2.04584e-10 2.65698e-09
1.70449e-07 -1.01091e-10 2.33402e-09
1.70335e-07 -1.6604e-10 -8.75469e-10
-1.66072e-07 1.53577e-05 -9.05066e-07
1.89415e-07 -2.07686e-09 6.25313e-09
-1.64387e-07 1.53599e-05 -9.07594e-07
1.84749e-07 -2.00545e-09 6.49356e-09
-2.73337e-07 1.7377e-05 -9.93205e-07
1.92094e-07 -2.24523e-09 6.88729e-09
-1.55088e-07 1.53629e-05 -8.9647e-07
1.81959e-07 -1.95999e-09 6.62438e-09
-2.71365e-07 1.73794e-05 -9.95288e-07
1.87369e-07 -2.16816e-09 7.30093e-09
-4.01588e-07 1.92011e-05 -1.07274e-06
1.82018e-07 -1.94686e-09 6.80077e-09
-2.60645e-07 1.73822e-05 -9.84803e-07
1.97061e-07 -2.4242e-09 7.26302e-09
-1.62927e-07 1.53647e-05 -9.05241e-07
1.8473e-07 -2.12541e-09 7.60758e-09
-3.96521e-07 1.92036e-05 -1.07966e-06
-5.17508e-07 2.04173e-05 -1.06085e-06
-5.14547e-07 2.04138e-05 -1.0598e-06
-5.02235e-07 2.04104e-05 -1.04366e-06
-5.17298e-07 2.04071e-05 -1.06073e-06
2.15951e-07 -2.78091e-09 -1.50037e-10
2.16387e-07 -2.78686e-09 -1.639e-10
2.0636e-07 -2.6461e-09 1.73297e-10
-5.19392e-07 2.04202e-05 -1.07324e-06
2.07128e-07 -2.63984e-09 4.2142e-10
-5.32287e-07 2.04241e-05 -1.08374e-06
2.0124e-07 -2.55206e-09 9.62589e-10
-7.0639e-07 2.06154e-05 -1.09161e-06
-1.67586e-07 1.5355e-05 -9.07228e-07
-2.74584e-07 1.73741e-05 -9.98432e-07
-3.97969e-07 1.9198e-05 -1.06567e-06
2.1586e-07 -2.71747e-09 5.95411e-09
1.89584e-07 -2.08734e-09 6.03556e-09
1.92128e-07 -2.25583e-09 6.60268e-09
1.96877e-07 -2.43842e-09 6.62113e-09
2.16517e-07 -2.72139e-09 6.08197e-09
2.01511e-07 -2.50337e-09 6.54474e-09
-1.5564e-07 1.53526e-05 -8.97901e-07
1.93449e-07 -2.14403e-09 5.86471e-09
-2.55988e-07 1.7371e-05 -9.85507e-07
1.96406e-07 -2.31627e-09 6.52915e-09
-3.77597e-07 1.91949e-05 -1.05535e-06
2.07291e-07 -2.58346e-09 6.40035e-09
2.06658e-07 -2.58813e-09 6.14161e-09
-1.58419e-07 1.535e-05 -8.88442e-07
-2.60734e-07 1.73684e-05 -9.89482e-07
-3.74594e-07 1.91918e-05 -1.05232e-06
1.98884e-07 -2.21348e-09 5.80286e-09
2.02113e-07 -2.39492e-09 6.31855e-09
-1.6168e-07 1.53473e-05 -8.89144e-07
-2.6304e-07 1.73653e-05 -9.93958e-07
-3.68944e-07 1.91882e-05 -1.04734e-06
1.9813e-07 -2.21638e-09 5.70467e-09
2.01372e-07 -2.40087e-09 6.09625e-09
2.06917e-07 -2.32962e-09 5.84784e-09
-1.59908e-07 1.53448e-05 -8.83413e-07
-2.53384e-07 1.73627e-05 -9.86772e-07
-3.52635e-07 1.91854e-05 -1.03925e-06
-1.79592e-07 1.53422e-05 -8.9496e-07
-2.71219e-07 1.73598e-05 -9.97276e-07
2.10518e-07 -2.52467e-09 6.10892e-09
2.06079e-07 -2.33414e-09 5.73631e-09
2.09574e-07 -2.52721e-09 5.88657e-09
-3.68156e-07 1.91825e-05 -1.04627e-06
-1.68046e-07 1.53404e-05 -8.83136e-07
-5.08076e-07 2.04038e-05 -1.05997e-06
-6.76337e-07 2.06116e-05 -1.09229e-06
2.24188e-07 -2.89146e-09 -4.55883e-10
-5.12793e-07 2.04006e-05 -1.07477e-06
-6.42092e-07 2.06075e-05 -1.06806e-06
2.28197e-07 -2.87512e-09 6.15449e-09
2.28261e-07 -2.9453e-09 -5.68998e-10
-4.86832e-07 2.03965e-05 -1.0594e-06
2.30395e-07 -2.91437e-09 6.0912e-09
-6.15698e-07 2.06044e-05 -1.04563e-06
-5.01152e-07 2.03932e-05 -1.06005e-06
2.30735e-07 -2.97961e-09 -8.40724e-10
2.30864e-07 -2.92859e-09 5.96698e-09
2.31306e-07 -2.99075e-09 -1.3207e-09
-6.19653e-07 2.0601e-05 -1.05854e-06
-5.16219e-07 2.03901e-05 -1.06145e-06
-6.17162e-07 2.05971e-05 -1.05122e-06
2.34601e-07 -2.98954e-09 6.02676e-09
2.35222e-07 -3.0502e-09 -1.61e-09
-5.29536e-07 2.03867e-05 -1.07381e-06
-6.52208e-07 2.05936e-05 -1.06599e-06
2.338e-07 -2.98214e-09 6.04985e-09
2.34329e-07 -3.04389e-09 -1.83826e-09
-5.15005e-07 2.0383e-05 -1.08386e-06
-6.47034e-07 2.05898e-05 -1.06775e-06
2.25698e-07 -3.03251e-09 -2.03553e-08
-2.59285e-07 1.73569e-05 -1.00165e-06
-3.53696e-07 1.91792e-05 -1.05063e-06
2.13082e-07 -2.42613e-09 5.87158e-09
2.23908e-07 -2.82367e-09 6.05839e-09
2.16891e-07 -2.62879e-09 5.94251e-09
-1.75846e-07 1.53375e-05 -8.92927e-07
-2.68981e-07 1.73542e-05 -1.00237e-06
-3.49849e-07 1.9176e-05 -1.0484e-06
2.16174e-07 -2.46263e-09 6.04007e-09
2.20226e-07 -2.68209e-09 5.96461e-09
-1.68921e-07 1.53348e-05 -8.98223e-07
-2.57858e-07 1.73508e-05 -1.015e-06
-3.48049e-07 1.91724e-05 -1.05455e-06
2.18124e-07 -2.49603e-09 6.01952e-09
2.22248e-07 -2.71851e-09 5.81679e-09
-1.70267e-07 1.53321e-05 -8.98167e-07
-2.54404e-07 1.73481e-05 -1.0113e-06
-3.53719e-07 1.91696e-05 -1.05062e-06
2.1878e-07 -2.51615e-09 5.90294e-09
2.2283e-07 -2.74035e-09 5.6023e-09
-3.68136e-07 1.91664e-05 -1.05262e-06
-1.66293e-07 1.53293e-05 -8.86292e-07
-2.54419e-07 1.7345e-05 -1.00694e-06
2.22035e-07 -2.57233e-09 5.80089e-09
2.26285e-07 -2.80566e-09 5.38555e-09
-3.52644e-07 1.91635e-05 -1.0391e-06
-1.51249e-07 1.53261e-05 -8.84934e-07
-2.29788e-07 1.73417e-05 -9.93056e-07
2.21482e-07 -2.56873e-09 5.72807e-09
2.25558e-07 -2.79931e-09 5.26526e-09
-3.54101e-07 1.916e-05 -1.05629e-06
-1.5673e-07 1.53228e-05 -8.91181e-07
-2.41026e-07 1.73387e-05 -1.00462e-06
2.38135e-07 -3.04558e-09 5.89324e-09
2.39158e-07 -3.11178e-09 -2.20559e-09
2.30475e-07 -3.09875e-09 -2.1076e-08
-5.0964e-07 2.03792e-05 -1.08417e-06
-6.37639e-07 2.05859e-05 -1.04713e-06
2.41803e-07 -3.10338e-09 5.82237e-09
2.43312e-07 -3.17746e-09 -2.50878e-09
2.35039e-07 -3.16013e-09 -2.14748e-08
-4.82905e-07 2.03758e-05 -1.06871e-06
-5.83436e-07 2.05818e-05 -9.91561e-07
2.57416e-07 -3.30372e-09 6.17646e-09
2.59339e-07 -3.3852e-09 -2.79701e-09
2.50703e-07 -3.35742e-09 -2.26431e-08
-4.80974e-07 2.03714e-05 -1.07696e-06
-5.97539e-07 2.05777e-05 -1.00319e-06
2.63442e-07 -3.39102e-09 6.16511e-09
2.64774e-07 -3.46725e-09 -3.09622e-09
2.55441e-07 -3.4155e-09 -2.30628e-08
-4.82928e-07 2.03675e-05 -1.06905e-06
-5.70183e-07 2.05732e-05 -9.6826e-07
2.64285e-07 -3.41649e-09 5.96327e-09
2.65993e-07 -3.48753e-09 -3.29915e-09
2.57546e-07 -3.43591e-09 -2.33277e-08
-4.56297e-07 2.03626e-05 -1.05115e-06
-5.37686e-07 2.05687e-05 -9.41492e-07
2.67495e-07 -3.58289e-09 -2.48565e-08
2.74925e-07 -3.5533e-09 6.18906e-09
2.76478e-07 -3.62998e-09 -3.83994e-09
-4.83491e-07 2.03587e-05 -1.06319e-06
-5.12634e-07 2.05641e-05 -9.22768e-07
2.70681e-07 -3.64487e-09 -2.61318e-08
2.76902e-07 -3.59233e-09 5.92011e-09
2.7931e-07 -3.6761e-09 -4.12278e-09
2.25143e-07 -2.62616e-09 5.62185e-09
2.29628e-07 -2.86183e-09 5.07098e-09
-3.69902e-07 1.91567e-05 -1.06054e-06
-1.60788e-07 1.53199e-05 -8.83943e-07
-2.43435e-07 1.73356e-05 -1.00161e-06
2.28149e-07 -2.67729e-09 5.42184e-09
2.33029e-07 -2.92816e-09 4.62816e-09
-3.63871e-07 1.91531e-05 -1.05567e-06
-1.56085e-07 1.53172e-05 -8.8095e-07
-2.32038e-07 1.73326e-05 -9.93728e-07
2.42333e-07 -2.85117e-09 5.61116e-09
2.48022e-07 -3.12179e-09 4.68759e-09
-3.61381e-07 1.91494e-05 -1.05132e-06
-1.61605e-07 1.5314e-05 -8.83873e-07
-2.34105e-07 1.73293e-05 -9.91626e-07
2.48459e-07 -2.9345e-09 5.63637e-09
2.5416e-07 -3.21156e-09 4.53075e-09
-3.64736e-07 1.91459e-05 -1.03739e-06
-1.64867e-07 1.53107e-05 -8.85944e-07
-2.3384e-07 1.7326e-05 -9.78907e-07
2.49059e-07 -2.96265e-09 5.37011e-09
2.5491e-07 -3.23585e-09 4.49804e-09
-3.35525e-07 1.91417e-05 -1.01401e-06
-1.56242e-07 1.53081e-05 -8.66588e-07
-2.15626e-07 1.73222e-05 -9.62402e-07
2.58896e-07 -3.09133e-09 5.3181e-09
2.64997e-07 -3.37626e-09 4.60023e-09
-3.52377e-07 1.91375e-05 -1.02363e-06
-1.68273e-07 1.53047e-05 -8.71623e-07
-2.21143e-07 1.73184e-05 -9.54276e-07
2.60142e-07 -3.12222e-09 4.87219e-09
2.66467e-07 -3.40716e-09 4.40988e-09
1.68267e-07 -1.19758e-09 4.83594e-09
1.70671e-07 -1.2269e-09 4.74462e-09
-8.34482e-08 1.17109e-05 -7.41747e-07
-8.23965e-08 1.17093e-05 -7.43468e-07
1.77827e-07 -1.29203e-09 4.75425e-09
1.78183e-07 -1.46387e-09 5.28333e-09
-9.08545e-08 1.17072e-05 -7.59856e-07
1.80502e-07 -1.32909e-09 4.53006e-09
-7.582e-08 1.17058e-05 -7.39804e-07
1.80701e-07 -1.33223e-09 4.58352e-09
-7.88595e-08 1.17038e-05 -7.37211e-07
1.83611e-07 -1.35866e-09 4.66087e-09
1.87896e-07 -1.4071e-09 4.58819e-09
-8.04973e-08 1.17017e-05 -7.41017e-07
1.88439e-07 -1.5967e-09 4.95079e-09
1.84004e-07 -1.53933e-09 5.08039e-09
-1.00653e-07 1.34228e-05 -8.09028e-07
1.81132e-07 -1.5077e-09 5.10799e-09
1.88628e-07 -1.87958e-09 5.20264e-09
-1.01052e-07 1.34249e-05 -8.11521e-07
1.81049e-07 -1.50031e-09 5.20801e-09
1.84149e-07 -1.8149e-09 5.42355e-09
-9.76594e-08 1.34272e-05 -8.15408e-07
1.81325e-07 -1.77764e-09 5.50965e-09
1.70741e-07 -1.38627e-09 5.3656e-09
-1.07296e-07 1.34287e-05 -8.30182e-07
1.81414e-07 -1.7683e-09 5.68459e-09
1.68403e-07 -1.36048e-09 5.44151e-09
-1.00585e-07 1.3431e-05 -8.283e-07
1.78446e-07 -1.72402e-09 5.8689e-09
1.7182e-07 -6.71837e-10 4.48238e-09
-4.3451e-08 7.73313e-06 -5.00171e-07
-5.22213e-08 8.91826e-06 -5.75295e-07
1.7022e-07 -8.12892e-10 5.15657e-09
1.69247e-07 -9.9997e-10 5.05713e-09
1.74428e-07 -6.87416e-10 4.50038e-09
1.72794e-07 -8.32474e-10 5.179e-09
1.71769e-07 -1.02573e-09 5.00342e-09
-6.21053e-08 1.02216e-05 -6.55706e-07
-4.90254e-08 8.91684e-06 -5.7302e-07
-4.11933e-08 7.73203e-06 -4.96261e-07
-5.62843e-08 1.02202e-05 -6.51277e-07
1.81127e-07 -7.22343e-10 4.48892e-09
1.79597e-07 -8.76534e-10 5.1475e-09
1.7876e-07 -1.07801e-09 5.00964e-09
-4.26092e-08 7.73072e-06 -4.98797e-07
-4.95112e-08 8.91527e-06 -5.77798e-07
-6.35105e-08 1.02184e-05 -6.58042e-07
-5.3591e-08 1.02173e-05 -6.42742e-07
-5.72206e-08 1.02155e-05 -6.49014e-07
-5.89758e-08 1.02136e-05 -6.55257e-07
1.83649e-07 -7.37727e-10 4.53327e-09
1.82171e-07 -8.97747e-10 5.10175e-09
1.814e-07 -1.10731e-09 4.85642e-09
-3.84408e-08 7.72975e-06 -4.93596e-07
-4.3704e-08 8.91429e-06 -5.69101e-07
1.84039e-07 -7.4077e-10 4.65406e-09
1.82552e-07 -9.02284e-10 5.17437e-09
1.81704e-07 -1.11659e-09 4.75996e-09
-4.11481e-08 7.72851e-06 -4.96624e-07
-4.70532e-08 8.91276e-06 -5.7545e-07
1.87073e-07 -7.5866e-10 4.86759e-09
1.85567e-07 -9.24469e-10 5.32436e-09
1.84721e-07 -1.13893e-09 4.91052e-09
1.91054e-07 -7.84837e-10 4.95694e-09
1.89627e-07 -9.59794e-10 5.30019e-09
-4.74211e-08 8.91126e-06 -5.77939e-07
-4.01085e-08 7.72713e-06 -4.9917e-07
1.88909e-07 -1.1805e-09 4.85178e-09
-8.10311e-08 1.16998e-05 -7.31219e-07
-9.18296e-08 1.34203e-05 -8.07505e-07
1.8813e-07 -1.41836e-09 4.49818e-09
1.88577e-07 -1.60859e-09 4.81194e-09
1.88862e-07 -1.89031e-09 5.09547e-09
-7.94337e-08 1.16982e-05 -7.2354e-07
-8.96693e-08 1.34183e-05 -7.99817e-07
1.91688e-07 -1.45468e-09 4.46368e-09
1.92139e-07 -1.64879e-09 4.81619e-09
1.92639e-07 -1.93854e-09 5.00262e-09
-7.41929e-08 1.16963e-05 -7.20624e-07
-8.62826e-08 1.34162e-05 -7.93696e-07
1.96721e-07 -1.49732e-09 4.5031e-09
1.97257e-07 -1.69749e-09 4.81199e-09
1.97894e-07 -2.00314e-09 4.87466e-09
-7.12581e-08 1.16945e-05 -7.18368e-07
1.95881e-07 -1.49856e-09 4.58128e-09
-7.89926e-08 1.34143e-05 -7.86288e-07
-7.21662e-08 1.16924e-05 -7.24475e-07
1.96358e-07 -1.70145e-09 4.68879e-09
-7.47729e-08 1.3412e-05 -7.83843e-07
1.96992e-07 -2.00999e-09 4.64536e-09
2.03919e-07 -1.57166e-09 4.74328e-09
2.04592e-07 -1.78431e-09 4.75654e-09
2.05508e-07 -2.10439e-09 4.83497e-09
-7.54978e-08 1.16905e-05 -7.26565e-07
-7.81081e-08 1.34098e-05 -7.93359e-07
2.03101e-07 -1.58661e-09 4.56266e-09
2.03678e-07 -1.79467e-09 4.61091e-09
2.04705e-07 -2.10844e-09 4.78352e-09
-6.9019e-08 1.16891e-05 -7.11572e-07
-7.18774e-08 1.3408e-05 -7.78981e-07
-5.94081e-08 1.02121e-05 -6.52958e-07
-4.73928e-08 8.90986e-06 -5.77273e-07
-4.01963e-08 7.72594e-06 -4.98545e-07
1.91345e-07 -7.93486e-10 4.84349e-09
1.89916e-07 -9.70595e-10 5.19455e-09
1.89209e-07 -1.19242e-09 4.75767e-09
-5.68602e-08 1.02106e-05 -6.46401e-07
-3.94822e-08 7.72486e-06 -4.96006e-07
-4.47556e-08 8.90853e-06 -5.74501e-07
-5.49341e-08 1.02054e-05 -6.47065e-07
-6.16489e-08 1.02037e-05 -6.46716e-07
-5.86392e-08 1.02023e-05 -6.41837e-07
1.94983e-07 -8.17975e-10 4.8522e-09
1.93428e-07 -1.0021e-09 5.0927e-09
1.92716e-07 -1.22642e-09 4.69616e-09
-5.35018e-08 1.02088e-05 -6.47386e-07
-5.24167e-08 1.02072e-05 -6.4212e-07
-3.98143e-08 7.72364e-06 -4.97133e-07
-4.43122e-08 8.90705e-06 -5.76438e-07
1.99982e-07 -8.42642e-10 4.96986e-09
1.98469e-07 -1.03339e-09 5.20379e-09
1.9777e-07 -1.26486e-09 4.71327e-09
-3.78288e-08 7.72243e-06 -4.94267e-07
-4.14415e-08 8.90566e-06 -5.72757e-07
1.9909e-07 -8.46491e-10 5.07576e-09
1.97591e-07 -1.03778e-09 5.25568e-09
1.96959e-07 -1.27306e-09 4.66106e-09
-3.74786e-08 7.72113e-06 -4.95483e-07
-4.16655e-08 8.90413e-06 -5.74935e-07
2.0702e-07 -8.89305e-10 5.27189e-09
2.05523e-07 -1.09121e-09 5.39304e-09
2.04999e-07 -1.33758e-09 4.74663e-09
-4.41675e-08 8.90254e-06 -5.75552e-07
-3.8715e-08 7.71971e-06 -4.96781e-07
2.06527e-07 -8.99139e-10 5.1215e-09
2.0493e-07 -1.10409e-09 5.20962e-09
2.04364e-07 -1.35247e-09 4.5526e-09
-3.73853e-08 7.71863e-06 -4.93448e-07
-4.06655e-08 8.90127e-06 -5.71233e-07
-1.4664e-08 4.41163e-06 -2.91416e-07
1.71333e-07 -4.23538e-10 2.87371e-09
-1.14685e-08 5.50928e-06 -3.61797e-07
-1.70827e-08 6.60992e-06 -4.2856e-07
1.71383e-07 -5.56087e-10 3.1684e-09
1.74033e-07 -4.35313e-10 2.83718e-09
1.75274e-07 -3.79572e-10 2.43025e-09
1.74077e-07 -5.7099e-10 3.09344e-09
-1.37435e-08 4.41094e-06 -2.91329e-07
-1.09041e-08 5.50848e-06 -3.61165e-07
-1.74013e-08 6.60897e-06 -4.27768e-07
1.8172e-07 -3.97889e-10 2.45695e-09
1.80481e-07 -4.58367e-10 2.86778e-09
1.80692e-07 -6.05667e-10 3.0383e-09
-2.05238e-08 6.60776e-06 -4.32516e-07
-1.35123e-08 4.41014e-06 -2.93895e-07
-1.07332e-08 5.50745e-06 -3.64903e-07
1.82905e-07 -4.69529e-10 2.82371e-09
1.84078e-07 -4.07081e-10 2.45738e-09
1.83172e-07 -6.21514e-10 2.93939e-09
-1.95455e-08 6.60684e-06 -4.3081e-07
-1.28637e-08 4.40959e-06 -2.91343e-07
-8.30248e-09 5.50674e-06 -3.61927e-07
1.83319e-07 -4.74596e-10 2.75741e-09
1.84502e-07 -4.09332e-10 2.44511e-09
1.83599e-07 -6.26274e-10 2.86395e-09
-2.22735e-08 6.60575e-06 -4.33433e-07
-2.5058e-08 6.6045e-06 -4.37573e-07
-1.21642e-08 4.40883e-06 -2.92489e-07
-7.62058e-09 5.50584e-06 -3.63425e-07
-1.24941e-08 4.40803e-06 -2.94733e-07
1.8632e-07 -4.85742e-10 2.75584e-09
1.87546e-07 -4.18163e-10 2.46494e-09
-7.9368e-09 5.50481e-06 -3.66814e-07
1.86597e-07 -6.3968e-10 2.86501e-09
1.90066e-07 -5.03829e-10 2.72647e-09
1.91211e-07 -4.32421e-10 2.45345e-09
1.90404e-07 -6.59393e-10 2.87373e-09
-4.21237e-09 2.20792e-06 -1.46386e-07
-7.99911e-09 3.31107e-06 -2.19843e-07
-6.98014e-13 1.10389e-06 -7.34266e-08
1.75789e-07 -2.33626e-10 2.51836e-09
1.76244e-07 -1.16023e-10 2.38781e-09
1.76153e-07 -1.72107e-10 -7.29905e-10
-3.82478e-09 2.20758e-06 -1.46323e-07
8.07028e-11 1.10372e-06 -7.34505e-08
-7.31416e-09 3.31054e-06 -2.19817e-07
1.82187e-07 -2.5002e-10 2.51212e-09
1.82629e-07 -1.22463e-10 2.47371e-09
1.8251e-07 -1.78295e-10 -7.11279e-10
-3.55606e-09 2.20717e-06 -1.47388e-07
1.0874e-10 1.10352e-06 -7.39101e-08
-1.23213e-14 -7.97913e-12 5.35816e-13
-7.00843e-09 3.30995e-06 -2.21358e-07
1.84577e-07 -2.56241e-10 2.52582e-09
1.85007e-07 -1.27059e-10 2.50155e-09
1.84832e-07 -1.80244e-10 -6.95152e-10
-3.25687e-09 2.20688e-06 -1.46383e-07
-6.53247e-09 3.30951e-06 -2.19845e-07
2.52913e-10 1.10336e-06 -7.3521e-08
1.85014e-07 -2.59643e-10 2.50385e-09
1.8541e-07 -1.29691e-10 2.47622e-09
1.85271e-07 -1.83345e-10 -7.2277e-10
-6.16565e-09 3.30895e-06 -2.20455e-07
-6.56169e-09 3.30833e-06 -2.22439e-07
-3.00529e-09 2.2065e-06 -1.46826e-07
2.95668e-10 1.10317e-06 -7.3627e-08
-1.13193e-14 -8.17558e-12 5.46367e-13
-3.31564e-09 2.20609e-06 -1.48172e-07
1.53142e-10 1.10296e-06 -7.42763e-08
-1.00835e-14 -8.28773e-12 5.59706e-13
1.88349e-07 -1.88329e-10 -7.55542e-10
1.88037e-07 -2.66529e-10 2.52819e-09
1.8849e-07 -1.34488e-10 2.49251e-09
1.91912e-07 -1.93593e-10 -6.93238e-10
1.91649e-07 -2.79521e-10 2.52719e-09
1.92067e-07 -1.40909e-10 2.5658e-09
-2.40519e-08 6.60357e-06 -4.33228e-07
-1.24496e-08 4.40734e-06 -2.94998e-07
-8.17729e-09 5.50404e-06 -3.65476e-07
1.91519e-07 -4.36303e-10 2.41565e-09
1.90333e-07 -5.08712e-10 2.70506e-09
1.90746e-07 -6.67863e-10 2.75741e-09
-2.44232e-08 6.60268e-06 -4.30512e-07
-1.22323e-08 4.40674e-06 -2.94274e-07
-7.78835e-09 5.50324e-06 -3.64484e-07
1.94095e-07 -5.27363e-10 2.62539e-09
1.95323e-07 -4.49132e-10 2.42991e-09
1.94451e-07 -6.92361e-10 2.61319e-09
-2.49301e-08 6.60156e-06 -4.30368e-07
-1.18273e-08 4.40592e-06 -2.95385e-07
-7.37932e-09 5.50224e-06 -3.6576e-07
1.9906e-07 -5.46221e-10 2.61472e-09
2.00305e-07 -4.64712e-10 2.43692e-09
1.99473e-07 -7.15061e-10 2.58653e-09
-2.71316e-08 6.59822e-06 -4.29597e-07
-2.76236e-08 6.59718e-06 -4.28251e-07
-2.44013e-08 6.60036e-06 -4.30238e-07
-1.12313e-08 4.40511e-06 -2.96243e-07
-6.38528e-09 5.50126e-06 -3.65703e-07
-2.55648e-08 6.5993e-06 -4.29266e-07
1.98207e-07 -5.51526e-10 2.53482e-09
1.99439e-07 -4.67334e-10 2.38367e-09
1.9856e-07 -7.18152e-10 2.55759e-09
-1.18895e-08 4.40443e-06 -2.96348e-07
-6.37074e-09 5.50036e-06 -3.65276e-07
2.07212e-07 -4.91113e-10 2.47314e-09
2.05941e-07 -5.79163e-10 2.64714e-09
2.06405e-07 -7.558e-10 2.5762e-09
-1.26413e-08 4.4037e-06 -2.97093e-07
-7.32696e-09 5.4995e-06 -3.64855e-07
2.05635e-07 -5.85977e-10 2.56827e-09
2.06881e-07 -4.9578e-10 2.43401e-09
2.0603e-07 -7.65845e-10 2.44915e-09
-1.22408e-08 4.40302e-06 -2.94687e-07
-7.90546e-09 5.4986e-06 -3.62961e-07
-6.48213e-09 3.30777e-06 -2.22812e-07
-3.08731e-09 2.20572e-06 -1.48251e-07
1.62058e-10 1.10279e-06 -7.42702e-08
-1.02835e-14 -8.41371e-12 5.67707e-13
1.91965e-07 -2.82708e-10 2.53019e-09
1.92382e-07 -1.43757e-10 2.57436e-09
1.92199e-07 -1.93935e-10 -6.55242e-10
-6.55817e-09 3.30729e-06 -2.22804e-07
-2.85649e-09 2.20543e-06 -1.47833e-07
2.39894e-10 1.10263e-06 -7.41784e-08
1.95862e-07 -2.91817e-10 2.56748e-09
1.96306e-07 -1.47997e-10 2.64549e-09
1.9609e-07 -1.97713e-10 -6.43397e-10
-2.709e-09 2.20503e-06 -1.48494e-07
-1.14834e-14 -8.663e-12 5.85902e-13
2.78313e-10 1.10243e-06 -7.44648e-08
-6.6969e-09 3.30672e-06 -2.2341e-07
2.00807e-07 -3.01173e-10 2.6271e-09
2.01254e-07 -1.54495e-10 2.67502e-09
2.01067e-07 -2.05243e-10 -6.97563e-10
-6.35076e-09 3.30611e-06 -2.24037e-07
-2.51815e-09 2.20463e-06 -1.4891e-07
3.15875e-10 1.10223e-06 -7.4649e-08
-2.58247e-15 -8.82071e-12 5.98525e-13
1.9995e-07 -3.03155e-10 2.60127e-09
2.00394e-07 -1.55766e-10 2.66279e-09