# vtk DataFile Version 3.0
vtk output
ASCII
DATASET POLYDATA
POINTS 18786 float
0.140579 0.940034 -0.0517741
0.140779 0.930045 -0.0512101
0.14095 0.920056 -0.0507149
0.13006 0.945129 -0.0505313
0.130216 0.935137 -0.0501033
0.141145 0.910072 -0.0501267
0.141314 0.900083 -0.049554
0.130428 0.925154 -0.0495335
0.141463 0.890096 -0.0490132
0.13063 0.91517 -0.0489703
0.152026 0.884994 -0.049699
0.183732 0.889698 -0.0512297
0.204992 0.889525 -0.0509532
0.183882 0.879711 -0.0505883
0.17317 0.884792 -0.0507992
0.194436 0.884623 -0.0508082
0.173332 0.874805 -0.0501759
0.194591 0.874637 -0.0501577
0.205128 0.879545 -0.0502768
0.184051 0.869732 -0.0498946
0.162692 0.879892 -0.0500349
0.19475 0.864657 -0.0494739
0.162865 0.869906 -0.0494136
0.173523 0.864827 -0.0494832
0.205259 0.869567 -0.0496111
0.152241 0.875003 -0.0490515
0.184223 0.859751 -0.0492146
0.205369 0.859582 -0.0489561
0.226046 0.889361 -0.0506232
0.246745 0.889209 -0.0507401
0.215599 0.884453 -0.0504422
0.257097 0.884151 -0.0503298
0.236476 0.884295 -0.0502869
0.215732 0.874469 -0.0497533
0.226161 0.879383 -0.0499471
0.24683 0.879231 -0.0500622
0.246909 0.86925 -0.0494111
0.236575 0.874315 -0.0496431
0.257151 0.874171 -0.0497049
0.215866 0.864493 -0.0490319
0.236672 0.864333 -0.0490009
0.257218 0.864191 -0.0490533
0.226268 0.869405 -0.049285
0.151088 0.944925 -0.0530748
0.151275 0.934933 -0.0525009
0.151408 0.924948 -0.0520313
0.151578 0.91496 -0.0514315
0.194299 0.894603 -0.0514746
0.173054 0.894778 -0.0513802
0.162454 0.889878 -0.0507056
0.151701 0.904968 -0.0509119
0.151859 0.894984 -0.0503039
0.183563 0.899676 -0.051891
0.204871 0.899508 -0.0515941
0.162277 0.899868 -0.0513482
0.172875 0.904757 -0.0520219
0.194162 0.904585 -0.0521435
0.183409 0.909662 -0.0525383
0.20474 0.909488 -0.0522489
0.162055 0.90985 -0.0519946
0.194021 0.914565 -0.0527894
0.172684 0.914747 -0.0526553
0.161899 0.919837 -0.0526214
0.183226 0.919641 -0.0531939
0.204624 0.919472 -0.052887
0.161631 0.939816 -0.0537805
0.161788 0.92983 -0.0531901
0.193867 0.924539 -0.0534582
0.172475 0.924725 -0.0532843
0.183083 0.929624 -0.0538537
0.204499 0.929447 -0.0535534
0.193728 0.934525 -0.054098
0.172283 0.934713 -0.0539188
0.182897 0.939604 -0.0545105
0.204381 0.939433 -0.0541926
0.172098 0.944701 -0.0545467
0.193598 0.944506 -0.0546948
0.215482 0.894433 -0.0511018
0.236392 0.89428 -0.0508982
0.257031 0.894134 -0.0509539
0.225935 0.899342 -0.0512587
0.24667 0.89919 -0.0513431
0.215361 0.904414 -0.0517699
0.236292 0.904254 -0.0515428
0.256964 0.904108 -0.0515996
0.225813 0.909319 -0.0519457
0.246592 0.909168 -0.0519818
0.215259 0.914391 -0.0523948
0.256905 0.914084 -0.0522341
0.236207 0.914236 -0.05217
0.215151 0.924367 -0.0530429
0.215048 0.934353 -0.0536802
0.214944 0.944333 -0.0543095
0.225719 0.919301 -0.0525895
0.246522 0.919148 -0.052607
0.236121 0.92421 -0.0528232
0.256836 0.924061 -0.0528765
0.225607 0.929274 -0.0532815
0.246442 0.929125 -0.0532247
0.256762 0.934039 -0.0535193
0.236022 0.934194 -0.053466
0.225506 0.939253 -0.0539211
0.24636 0.939109 -0.0538364
0.235924 0.944172 -0.0541164
0.25669 0.944023 -0.0541233
0.267323 0.889072 -0.050626
0.267372 0.879095 -0.0499715
0.267421 0.869116 -0.0493457
0.297923 0.883936 -0.0506619
0.318304 0.883854 -0.0507341
0.287712 0.888968 -0.050973
0.308099 0.888888 -0.0509983
0.277541 0.88403 -0.0503912
0.287782 0.878989 -0.0503374
0.308155 0.878908 -0.0503514
0.277617 0.874049 -0.0497817
0.298008 0.873961 -0.0500308
0.318366 0.873878 -0.0501058
0.298071 0.863983 -0.0493876
0.318414 0.8639 -0.0494507
0.287877 0.869019 -0.0497107
0.308227 0.868932 -0.0497435
0.287947 0.859036 -0.0490784
0.308283 0.858952 -0.0491099
0.277733 0.86408 -0.0491772
0.328407 0.888791 -0.0511825
0.379059 0.883625 -0.0511399
0.34869 0.888706 -0.0512469
0.368913 0.888642 -0.0514351
0.368937 0.878663 -0.0507909
0.338564 0.883758 -0.0509018
0.358821 0.883686 -0.0510106
0.338599 0.873777 -0.0502783
0.358844 0.873707 -0.0503767
0.379069 0.873653 -0.0504799
0.328458 0.878818 -0.0505167
0.348727 0.878734 -0.0505846
0.328499 0.868835 -0.0498758
0.348759 0.868752 -0.0499564
0.368958 0.868689 -0.0501374
0.368984 0.858712 -0.0494804
0.338651 0.863807 -0.0496015
0.358872 0.863736 -0.049699
0.379081 0.863683 -0.0497815
0.328557 0.858862 -0.0491951
0.338689 0.853828 -0.0489472
0.3589 0.853758 -0.0490406
0.379099 0.853706 -0.0491181
0.348797 0.858782 -0.0492873
0.267265 0.899052 -0.0512293
0.267211 0.909029 -0.0518623
0.267161 0.919008 -0.0524904
0.2671 0.928983 -0.0531352
0.26704 0.938966 -0.05375
0.277423 0.894 -0.0510219
0.297858 0.893918 -0.0513006
0.318254 0.893834 -0.0513772
0.287606 0.898938 -0.0515875
0.308027 0.898857 -0.051634
0.297766 0.903884 -0.0519706
0.318187 0.903802 -0.0520486
0.277343 0.903973 -0.0516423
0.287535 0.908919 -0.0521655
0.307973 0.908836 -0.0522592
0.297704 0.913863 -0.0526111
0.318137 0.91378 -0.0526909
0.277267 0.913949 -0.0522502
0.287441 0.918888 -0.0527935
0.307902 0.918805 -0.052888
0.277193 0.923917 -0.0528844
0.297619 0.923829 -0.053257
0.318073 0.923747 -0.0533568
0.287366 0.928864 -0.0534155
0.307839 0.928783 -0.05354
0.277144 0.933895 -0.0535155
0.2771 0.943878 -0.0541183
0.297547 0.93381 -0.0538781
0.318021 0.933727 -0.0539853
0.28726 0.938835 -0.0540411
0.307751 0.938758 -0.0541949
0.297453 0.943783 -0.0544994
0.317957 0.943699 -0.0546184
0.358789 0.89366 -0.0516668
0.37904 0.893605 -0.0517935
0.33852 0.893739 -0.0515441
0.328361 0.89877 -0.0518249
0.368889 0.898611 -0.0520974
0.34865 0.898683 -0.0518933
0.379024 0.903573 -0.0524743
0.338464 0.903706 -0.0522233
0.358752 0.903635 -0.0523115
0.328305 0.90874 -0.052488
0.348609 0.908651 -0.0525606
0.368863 0.908587 -0.0527453
0.328267 0.91872 -0.053117
0.328211 0.928691 -0.0537847
0.328167 0.938672 -0.0544171
0.358723 0.913604 -0.0529633
0.379008 0.913549 -0.0531228
0.338424 0.913685 -0.0528691
0.368842 0.918559 -0.0533885
0.348574 0.918631 -0.053177
0.378995 0.923516 -0.0538033
0.338374 0.923652 -0.053573
0.358695 0.923579 -0.053607
0.34853 0.928599 -0.0538479
0.36882 0.928534 -0.0540405
0.338322 0.933624 -0.0542551
0.358662 0.933551 -0.0542487
0.378976 0.933495 -0.0544387
0.368798 0.938508 -0.0546815
0.348495 0.938581 -0.054465
0.378963 0.943468 -0.0550861
0.33828 0.943605 -0.0549085
0.358634 0.943531 -0.0548638
0.419434 0.88355 -0.0512215
0.439592 0.883532 -0.0511293
0.389108 0.888595 -0.0513775
0.409326 0.888559 -0.0514979
0.429516 0.888533 -0.0514905
0.389139 0.878618 -0.0507165
0.40934 0.878581 -0.0508359
0.429522 0.878556 -0.0508271
0.399265 0.883592 -0.0511003
0.399281 0.873614 -0.0504573
0.419443 0.873579 -0.0505669
0.439587 0.873561 -0.0504698
0.419454 0.863604 -0.0498965
0.389189 0.868644 -0.0500749
0.409358 0.868608 -0.0501901
0.429523 0.868582 -0.0501753
0.389223 0.85867 -0.0494052
0.409374 0.858632 -0.0495225
0.429529 0.858607 -0.0495111
0.399311 0.863645 -0.0497762
0.439581 0.863592 -0.0497903
0.399328 0.853668 -0.0491213
0.419465 0.853633 -0.0492374
0.439583 0.853615 -0.0491312
0.45973 0.883509 -0.0512455
0.449655 0.888512 -0.0514922
0.469791 0.888501 -0.0514745
0.489914 0.888501 -0.0514177
0.449658 0.878534 -0.0508322
0.469788 0.878524 -0.0508133
0.489904 0.878523 -0.0507587
0.47984 0.883515 -0.0510987
0.459716 0.873538 -0.0505844
0.479833 0.873537 -0.0504487
0.459715 0.863564 -0.0499108
0.449652 0.868561 -0.0501796
0.469766 0.86855 -0.0501583
0.489866 0.868549 -0.0501086
0.449655 0.858586 -0.0495163
0.469761 0.858575 -0.049493
0.489853 0.858574 -0.049443
0.479803 0.863568 -0.0497708
0.459701 0.853593 -0.0492448
0.479794 0.853591 -0.0491108
0.399235 0.893565 -0.0517566
0.419424 0.89353 -0.0518772
0.439588 0.893512 -0.05179
0.389059 0.898563 -0.052034
0.409303 0.898528 -0.0521583
0.429512 0.898501 -0.0521615
0.419414 0.903497 -0.0525516
0.439593 0.903478 -0.0524632
0.399216 0.903539 -0.0524151
0.389027 0.908538 -0.0526842
0.409292 0.908503 -0.052814
0.429507 0.908476 -0.0528307
0.399187 0.913508 -0.0530679
0.419408 0.913473 -0.0532083
0.439592 0.913454 -0.0531226
0.389006 0.91851 -0.0533292
0.409274 0.918475 -0.0534525
0.429506 0.918448 -0.0534662
0.419398 0.923439 -0.0538666
0.439599 0.92342 -0.0537868
0.399166 0.923482 -0.0537157
0.389001 0.928485 -0.0539881
0.40926 0.92845 -0.0541043
0.429499 0.928423 -0.0541203
0.399134 0.933452 -0.0543607
0.419388 0.933418 -0.0545001
0.439596 0.9334 -0.0544237
0.389004 0.938458 -0.0546316
0.409241 0.938422 -0.0547414
0.429499 0.938395 -0.0547546
0.419377 0.94339 -0.055138
0.439602 0.943372 -0.0550646
0.399114 0.943431 -0.0549815
0.459727 0.89349 -0.0518961
0.479866 0.893488 -0.0517538
0.449658 0.89848 -0.052158
0.46981 0.898469 -0.0521372
0.489947 0.898469 -0.0520779
0.459739 0.903456 -0.0525636
0.479873 0.903461 -0.0524139
0.449656 0.908455 -0.0528252
0.469816 0.908444 -0.0528027
0.489961 0.908444 -0.0527442
0.459742 0.913432 -0.0532156
0.479904 0.913431 -0.0530716
0.449661 0.918427 -0.053459
0.469839 0.918416 -0.0534357
0.489999 0.918416 -0.0533771
0.459757 0.923399 -0.0538735
0.479936 0.923397 -0.0537307
0.449656 0.928403 -0.0541068
0.469841 0.928391 -0.0540873
0.490009 0.928391 -0.0540307
0.459758 0.933378 -0.0545012
0.479944 0.933376 -0.0543588
0.449665 0.938376 -0.0547405
0.469865 0.938364 -0.0547168
0.490047 0.938365 -0.0546565
0.459774 0.943351 -0.0551359
0.479952 0.943357 -0.0549855
0.500008 0.933378 -0.0543864
0.500024 0.883509 -0.0511544
0.520139 0.883508 -0.0511251
0.54027 0.883509 -0.0512708
0.510087 0.8885 -0.0514412
0.530209 0.888501 -0.0514993
0.550346 0.888512 -0.0515179
0.510097 0.878523 -0.0507885
0.530213 0.878523 -0.0508471
0.550344 0.878534 -0.0508642
0.500068 0.873537 -0.0505132
0.520168 0.873536 -0.0504788
0.540285 0.873538 -0.050621
0.500084 0.863562 -0.0498519
0.520176 0.863562 -0.0498179
0.540286 0.863563 -0.049961
0.510136 0.868549 -0.0501366
0.530235 0.86855 -0.0501905
0.55035 0.868561 -0.0502098
0.510149 0.858574 -0.0494812
0.53024 0.858574 -0.0495366
0.550348 0.858585 -0.0495572
0.500131 0.85359 -0.0491891
0.520208 0.85359 -0.0491555
0.540301 0.853592 -0.0492979
0.560409 0.883532 -0.0511532
[...]
POINT_DATA 18786
VECTORS alpha float
1.16265e-06 -9.09583e-09 -1.35561e-08
1.13672e-06 -8.80392e-09 -1.05909e-08
1.11359e-06 -8.60442e-09 -6.38684e-09
-3.24114e-07 1.66045e-05 -1.06767e-06
-3.25135e-07 1.66276e-05 -1.08443e-06
1.08844e-06 -8.35974e-09 -3.91813e-09
1.06625e-06 -8.10252e-09 -1.92982e-09
-3.29494e-07 1.66507e-05 -1.08963e-06
1.04225e-06 -7.83483e-09 1.67964e-09
-3.1197e-07 1.66732e-05 -1.05158e-06
-2.83813e-07 1.85959e-05 -1.17487e-06
1.13493e-06 -8.32763e-09 7.32335e-08
1.16597e-06 -8.10673e-09 6.38905e-08
1.11088e-06 -8.00378e-09 7.15441e-08
-2.55835e-07 1.95803e-05 -1.28338e-06
-2.1243e-07 1.93882e-05 -1.31294e-06
-2.48013e-07 1.96023e-05 -1.28806e-06
-2.00679e-07 1.94098e-05 -1.31392e-06
1.14189e-06 -7.87826e-09 6.12171e-08
1.08493e-06 -7.71716e-09 6.92009e-08
1.0709e-06 -8.08128e-09 5.21035e-08
-1.89599e-07 1.94329e-05 -1.30403e-06
1.04664e-06 -7.78582e-09 5.2063e-08
-2.45796e-07 1.96264e-05 -1.27461e-06
1.11537e-06 -7.60551e-09 5.85168e-08
-2.72128e-07 1.86185e-05 -1.16401e-06
1.06177e-06 -7.5022e-09 6.60553e-08
1.0925e-06 -7.36934e-09 5.6838e-08
1.19213e-06 -7.5998e-09 4.31061e-08
1.22047e-06 -6.81245e-09 3.76864e-08
-1.49738e-07 1.82167e-05 -1.22178e-06
-7.2579e-08 1.45343e-05 -9.80578e-07
-1.07795e-07 1.64692e-05 -1.10136e-06
-1.444e-07 1.82372e-05 -1.23897e-06
1.16721e-06 -7.39968e-09 4.1643e-08
1.19553e-06 -6.651e-09 3.62339e-08
1.16801e-06 -6.38861e-09 3.49504e-08
-1.05517e-07 1.64884e-05 -1.10446e-06
-7.34995e-08 1.4552e-05 -9.89507e-07
-1.36582e-07 1.82592e-05 -1.23152e-06
-1.00581e-07 1.65089e-05 -1.10496e-06
-7.15289e-08 1.45709e-05 -9.85556e-07
1.13964e-06 -7.15211e-09 4.01415e-08
-3.46577e-07 1.84502e-05 -1.21592e-06
-3.39479e-07 1.84749e-05 -1.22421e-06
-3.24108e-07 1.85003e-05 -1.19383e-06
-3.01903e-07 1.85255e-05 -1.15902e-06
-2.16315e-07 1.93653e-05 -1.32287e-06
-2.63536e-07 1.9557e-05 -1.29314e-06
1.09436e-06 -8.29414e-09 5.39857e-08
-2.79063e-07 1.85485e-05 -1.17448e-06
-2.88335e-07 1.85724e-05 -1.20337e-06
1.1623e-06 -8.65705e-09 7.53651e-08
1.19299e-06 -8.40873e-09 6.57527e-08
1.12069e-06 -8.60576e-09 5.44791e-08
-2.49873e-07 1.95333e-05 -1.28434e-06
-2.09198e-07 1.93405e-05 -1.32514e-06
1.18604e-06 -8.96314e-09 7.65169e-08
1.21785e-06 -8.64132e-09 6.75385e-08
1.14607e-06 -8.85496e-09 5.58387e-08
-2.13282e-07 1.93177e-05 -1.33389e-06
-2.5454e-07 1.95086e-05 -1.288e-06
1.17221e-06 -9.12017e-09 5.45105e-08
1.21482e-06 -9.27787e-09 7.88854e-08
1.2459e-06 -8.93244e-09 6.94119e-08
1.22451e-06 -9.69921e-09 4.86217e-08
1.197e-06 -9.4115e-09 5.13106e-08
-2.04889e-07 1.92919e-05 -1.32283e-06
-2.41645e-07 1.94815e-05 -1.29133e-06
1.24136e-06 -9.61704e-09 8.02654e-08
1.27337e-06 -9.20451e-09 7.12043e-08
-2.0392e-07 1.92671e-05 -1.3059e-06
-2.361e-07 1.94553e-05 -1.29148e-06
1.27267e-06 -9.98068e-09 8.23463e-08
1.30298e-06 -9.54739e-09 7.26104e-08
-2.32223e-07 1.94298e-05 -1.29412e-06
-2.04077e-07 1.92433e-05 -1.30564e-06
-1.50409e-07 1.81953e-05 -1.22471e-06
-1.10214e-07 1.64485e-05 -1.10493e-06
-7.46666e-08 1.45157e-05 -9.78412e-07
1.22014e-06 -7.87743e-09 4.46312e-08
1.24941e-06 -7.07804e-09 3.9123e-08
-1.48037e-07 1.81719e-05 -1.22752e-06
-1.06955e-07 1.64274e-05 -1.11616e-06
-7.10233e-08 1.44965e-05 -9.79173e-07
1.24532e-06 -8.07095e-09 4.62264e-08
1.2757e-06 -7.28144e-09 3.98619e-08
-1.42606e-07 1.815e-05 -1.23318e-06
-6.85763e-08 1.44775e-05 -9.87487e-07
-1.01968e-07 1.64062e-05 -1.11912e-06
-1.44223e-07 1.81264e-05 -1.24032e-06
-1.41917e-07 1.81032e-05 -1.23022e-06
-1.42332e-07 1.80803e-05 -1.22802e-06
1.2736e-06 -8.33128e-09 4.76612e-08
1.30465e-06 -7.54373e-09 4.06953e-08
-1.01232e-07 1.63842e-05 -1.11903e-06
-7.26335e-08 1.4457e-05 -9.94077e-07
1.30104e-06 -8.55127e-09 4.94695e-08
1.33249e-06 -7.76327e-09 4.13273e-08
-7.35452e-08 1.44374e-05 -9.93398e-07
-9.64923e-08 1.63621e-05 -1.11352e-06
1.33128e-06 -8.80394e-09 5.04781e-08
1.36305e-06 -8.05908e-09 4.03657e-08
-9.3006e-08 1.63417e-05 -1.10273e-06
-7.46649e-08 1.44177e-05 -9.84828e-07
1.25016e-06 -6.04522e-09 2.79531e-08
1.22468e-06 -5.90973e-09 2.65842e-08
1.19681e-06 -5.67223e-09 2.5994e-08
-1.83456e-08 1.10443e-05 -7.58557e-07
-1.94997e-08 9.62847e-06 -6.7853e-07
1.27475e-06 -4.94858e-09 2.32851e-08
1.30113e-06 -4.46096e-09 2.15325e-08
-3.41869e-08 1.2684e-05 -8.53787e-07
1.24927e-06 -4.80406e-09 2.3283e-08
1.27531e-06 -4.33562e-09 2.12303e-08
-3.53593e-08 1.27001e-05 -8.6793e-07
-1.99944e-08 1.10588e-05 -7.69189e-07
-2.07687e-08 9.64097e-06 -6.83161e-07
-1.98683e-08 1.10739e-05 -7.6341e-07
-1.94582e-08 9.65441e-06 -6.82782e-07
1.22023e-06 -4.65144e-09 2.37956e-08
1.24602e-06 -4.19619e-09 2.19945e-08
1.19582e-06 -4.53939e-09 2.39972e-08
1.22128e-06 -4.07916e-09 2.21461e-08
-3.72809e-08 1.27169e-05 -8.65124e-07
1.32554e-06 -3.91144e-09 2.12901e-08
-1.39484e-08 6.21266e-06 -4.41487e-07
1.34447e-06 -3.15764e-09 2.04274e-08
1.36403e-06 -2.5634e-09 2.07229e-08
1.33717e-06 -2.46007e-09 2.05408e-08
-1.17019e-08 8.39303e-06 -5.94881e-07
-1.01107e-08 7.27258e-06 -5.09938e-07
-1.16959e-08 8.40436e-06 -5.9386e-07
-1.02037e-08 7.28254e-06 -5.09928e-07
-1.36632e-08 6.2211e-06 -4.41493e-07
1.29892e-06 -3.85276e-09 2.07658e-08
1.31731e-06 -3.05464e-09 2.02908e-08
1.26951e-06 -3.71874e-09 2.056e-08
1.28775e-06 -2.92381e-09 2.06331e-08
1.30676e-06 -2.40309e-09 2.02607e-08
1.28066e-06 -2.3273e-09 2.00993e-08
-1.23769e-08 8.41606e-06 -5.94818e-07
-1.0244e-08 7.2928e-06 -5.11591e-07
-1.29965e-08 6.22999e-06 -4.41936e-07
1.24361e-06 -3.66918e-09 2.00132e-08
-1.31467e-08 8.4276e-06 -5.9306e-07
-1.08011e-08 7.30295e-06 -5.1062e-07
-1.26596e-08 6.23875e-06 -4.41122e-07
1.26151e-06 -2.85797e-09 2.04018e-08
1.27922e-06 -6.26335e-09 2.88616e-08
1.30556e-06 -6.411e-09 2.97332e-08
1.33486e-06 -6.62143e-09 3.02993e-08
1.36306e-06 -6.79373e-09 3.1323e-08
1.39428e-06 -7.05757e-09 3.14574e-08
-3.41459e-08 1.26674e-05 -8.49339e-07
-1.92513e-08 1.1029e-05 -7.54057e-07
-2.03532e-08 9.61507e-06 -6.78127e-07
1.30491e-06 -5.08867e-09 2.28564e-08
1.3317e-06 -4.57095e-09 2.17234e-08
-1.61123e-08 1.10134e-05 -7.48359e-07
-1.88084e-08 9.60124e-06 -6.75184e-07
-3.17048e-08 1.26496e-05 -8.42525e-07
1.33147e-06 -5.26399e-09 2.17331e-08
1.3589e-06 -4.7127e-09 2.16137e-08
-1.26774e-08 1.09973e-05 -7.44045e-07
-1.6489e-08 9.58736e-06 -6.73569e-07
-2.82228e-08 1.26317e-05 -8.47825e-07
1.36209e-06 -5.4305e-09 2.09745e-08
1.38963e-06 -4.84886e-09 2.1093e-08
-2.99781e-08 1.26138e-05 -8.58107e-07
-1.04814e-08 1.09809e-05 -7.42847e-07
-1.61741e-08 9.573e-06 -6.70969e-07
1.39074e-06 -5.6107e-09 2.02397e-08
1.41835e-06 -4.95714e-09 2.0773e-08
-3.00755e-08 1.25961e-05 -8.62041e-07
-2.92174e-08 1.25785e-05 -8.55582e-07
-9.91186e-09 1.09644e-05 -7.41421e-07
-1.57736e-08 9.55865e-06 -6.68009e-07
1.42368e-06 -5.82916e-09 1.94798e-08
1.45081e-06 -5.03655e-09 1.96381e-08
-7.62393e-09 1.09486e-05 -7.38512e-07
-1.44556e-08 9.54482e-06 -6.66596e-07
-9.75989e-09 7.26258e-06 -5.05741e-07
-1.46138e-08 6.2038e-06 -4.38924e-07
-1.17912e-08 8.38122e-06 -5.93387e-07
1.35595e-06 -4.01096e-09 2.19429e-08
1.39556e-06 -2.62688e-09 2.10385e-08
1.37532e-06 -3.30424e-09 2.05075e-08
-1.39799e-08 6.19455e-06 -4.35772e-07
-9.57893e-09 8.36903e-06 -5.89737e-07
-8.51525e-09 7.25162e-06 -5.02659e-07
1.38407e-06 -4.07861e-09 2.24192e-08
1.40394e-06 -3.39877e-09 2.05944e-08
1.42393e-06 -2.73646e-09 2.0967e-08
1.41487e-06 -4.23484e-09 2.22715e-08
1.44484e-06 -4.30107e-09 2.25946e-08
1.47742e-06 -4.45212e-09 2.25146e-08
-6.20715e-09 7.24132e-06 -4.97969e-07
-1.32708e-08 6.18535e-06 -4.34016e-07
-7.33371e-09 8.35682e-06 -5.86815e-07
1.45601e-06 -2.81579e-09 2.09439e-08
1.43519e-06 -3.5678e-09 2.02246e-08
-1.30169e-08 6.1757e-06 -4.32978e-07
-6.61789e-09 8.34387e-06 -5.86635e-07
-5.88609e-09 7.22985e-06 -4.98264e-07
1.46553e-06 -3.6542e-09 2.0514e-08
1.486e-06 -2.94043e-09 2.12066e-08
-6.09555e-09 8.33122e-06 -5.86697e-07
-6.03296e-09 7.21899e-06 -4.9727e-07
-1.36952e-08 6.16608e-06 -4.30809e-07
1.51964e-06 -3.02373e-09 2.11481e-08
1.49841e-06 -3.80986e-09 2.02592e-08
-1.38854e-08 6.15685e-06 -4.28921e-07
-6.34139e-09 8.31835e-06 -5.88782e-07
-5.89186e-09 7.20798e-06 -4.98807e-07
-9.64594e-10 4.14417e-06 -2.9639e-07
-2.9082e-09 3.10952e-06 -2.23712e-07
1.38003e-06 -2.14202e-09 1.28844e-08
1.39166e-06 -1.378e-09 1.25167e-08
1.40422e-06 -1.12101e-09 1.21917e-08
1.35255e-06 -2.02237e-09 1.24847e-08
1.3642e-06 -1.34858e-09 1.23812e-08
1.37639e-06 -1.0865e-09 1.18854e-08
7.14916e-10 5.1767e-06 -3.69202e-07
1.55236e-09 5.18392e-06 -3.68855e-07
-1.45923e-09 4.14983e-06 -2.97304e-07
-3.01692e-09 3.1138e-06 -2.24393e-07
-1.51714e-09 4.15584e-06 -2.9732e-07
1.32137e-06 -1.89953e-09 1.23311e-08
1.33299e-06 -1.29346e-09 1.23037e-08
1.34507e-06 -1.05801e-09 1.17757e-08
1.29465e-06 -1.83475e-09 1.18069e-08
1.30621e-06 -1.28092e-09 1.19346e-08
1.31796e-06 -1.03158e-09 1.15742e-08
1.11409e-09 5.19132e-06 -3.69099e-07
-2.9421e-09 3.11829e-06 -2.24705e-07
2.79419e-10 5.19862e-06 -3.68754e-07
-2.11257e-09 4.16165e-06 -2.97587e-07
-2.86767e-09 3.12272e-06 -2.246e-07
-9.55416e-10 2.07312e-06 -1.49498e-07
1.41233e-06 -5.66488e-10 1.00248e-08
1.41795e-06 -1.10717e-10 9.93527e-09
1.41986e-06 6.27627e-11 -1.94778e-09
1.38425e-06 -5.22023e-10 9.97529e-09
1.38974e-06 -1.08265e-10 9.56655e-09
1.3916e-06 4.09493e-11 -2.03396e-09
-4.15426e-10 1.03638e-06 -7.4812e-08
-9.92528e-10 2.07599e-06 -1.4985e-07
-3.46264e-10 1.03784e-06 -7.49327e-08
-9.62359e-10 2.07905e-06 -1.49462e-07
1.35277e-06 -5.0332e-10 9.8056e-09
1.3582e-06 -1.20572e-10 9.13546e-09
1.36007e-06 -7.02479e-13 -2.42996e-09
1.32546e-06 -4.77933e-10 9.9546e-09
1.33076e-06 -1.27273e-10 8.96065e-09
1.3326e-06 -2.85359e-11 -2.35053e-09
-3.32446e-10 1.03935e-06 -7.4858e-08
-1.17866e-09 2.08201e-06 -1.49213e-07
-3.11406e-10 1.04085e-06 -7.46611e-08
5.54403e-10 5.16934e-06 -3.67415e-07
-7.88927e-10 4.13808e-06 -2.96979e-07
-3.02149e-09 3.10494e-06 -2.24053e-07
1.41243e-06 -2.28757e-09 1.3713e-08
1.4239e-06 -1.41612e-09 1.28969e-08
1.43671e-06 -1.16756e-09 1.26622e-08
-4.43961e-10 4.13185e-06 -2.95538e-07
-2.86745e-09 3.10025e-06 -2.22992e-07
7.07028e-10 5.1614e-06 -3.65919e-07
1.44152e-06 -2.42021e-09 1.40537e-08
1.45302e-06 -1.45432e-09 1.30251e-08
1.46617e-06 -1.1992e-09 1.29635e-08
1.26498e-09 5.15375e-06 -3.64688e-07
-7.38607e-11 4.12562e-06 -2.95586e-07
-2.81728e-09 3.09556e-06 -2.23133e-07
1.4742e-06 -2.51645e-09 1.44497e-08
1.48591e-06 -1.4999e-09 1.30925e-08
1.49924e-06 -1.22995e-09 1.30935e-08
-7.3459e-12 4.11912e-06 -2.94956e-07
-2.90323e-09 3.09068e-06 -2.22354e-07
1.22811e-09 5.14547e-06 -3.64253e-07
1.50451e-06 -2.59088e-09 1.50626e-08
1.51663e-06 -1.55083e-09 1.31584e-08
1.5302e-06 -1.25955e-09 1.33458e-08
1.19729e-09 5.13737e-06 -3.63705e-07
6.17895e-11 4.11257e-06 -2.9482e-07
-3.03614e-09 3.08574e-06 -2.22083e-07
1.5384e-06 -2.61838e-09 1.58499e-08
1.55106e-06 -1.57406e-09 1.33784e-08
1.56477e-06 -1.25642e-09 1.37245e-08
2.01035e-10 4.10637e-06 -2.94254e-07
-3.17379e-09 3.08106e-06 -2.21722e-07
9.54951e-10 5.12939e-06 -3.62627e-07
-1.00326e-09 2.0701e-06 -1.49436e-07
-4.72185e-10 1.03488e-06 -7.47321e-08
1.44498e-06 -6.18935e-10 1.01951e-08
1.45068e-06 -1.18881e-10 1.04501e-08
1.45259e-06 8.40878e-11 -1.90755e-09
-9.14286e-10 2.06696e-06 -1.48724e-07
-4.66703e-10 1.03328e-06 -7.45075e-08
1.47468e-06 -6.576e-10 1.02809e-08
1.48051e-06 -1.27715e-10 1.06431e-08
1.48247e-06 9.35902e-11 -2.05494e-09
-8.98992e-10 2.06383e-06 -1.48641e-07
-5.1654e-10 1.03173e-06 -7.44362e-08
1.50792e-06 -6.9977e-10 1.03549e-08
1.51385e-06 -1.31032e-10 1.08448e-08
1.51582e-06 1.21429e-10 -2.06543e-09
-8.26912e-10 2.06055e-06 -1.48431e-07
-5.17326e-10 1.03009e-06 -7.43253e-08
1.53912e-06 -7.584e-10 1.03514e-08
1.54517e-06 -1.58603e-10 1.08184e-08
1.5472e-06 1.25649e-10 -2.1592e-09
-9.15006e-10 2.05725e-06 -1.4797e-07
-6.21841e-10 1.02843e-06 -7.41417e-08
1.57383e-06 -7.44008e-10 1.10172e-08
1.57994e-06 -1.28048e-10 1.12613e-08
1.58198e-06 1.98095e-10 -1.84936e-09
-9.56108e-10 2.0541e-06 -1.47621e-07
-7.29947e-10 1.02682e-06 -7.4013e-08
1.62828e-15 -1.77376e-12 1.28242e-13
-4.41605e-16 -1.5696e-12 1.13848e-13
-4.06394e-10 -1.03641e-06 7.50974e-08
-1.04668e-09 -2.07313e-06 1.50138e-07
1.41983e-06 -8.02096e-11 1.98593e-09
1.41796e-06 1.03956e-10 -1.01681e-08
1.41233e-06 5.60259e-10 -9.97156e-09
1.39155e-06 -6.94007e-11 1.91758e-09
1.38974e-06 9.5654e-11 -1.00049e-08
1.38422e-06 5.17261e-10 -9.88417e-09
-2.74505e-16 -1.80627e-12 1.31173e-13
-3.54638e-10 -1.03783e-06 7.52945e-08
-1.1073e-09 -2.07598e-06 1.50536e-07
-2.29234e-16 -2.03827e-12 1.47671e-13
-3.36007e-10 -1.03936e-06 7.52017e-08
-1.11324e-09 -2.07905e-06 1.50291e-07
1.35999e-06 -2.89696e-11 2.30651e-09
1.35817e-06 1.0596e-10 -9.58077e-09
1.35271e-06 4.92855e-10 -9.72825e-09
1.3325e-06 -1.32807e-11 2.15859e-09
1.33073e-06 1.05949e-10 -9.49551e-09
1.3254e-06 4.65825e-10 -9.83972e-09
-1.37073e-17 -2.24254e-12 1.61916e-13
-3.31671e-10 -1.04084e-06 7.50594e-08
-1.3173e-09 -2.082e-06 1.50005e-07
-2.95448e-09 -3.10954e-06 2.24724e-07
-1.18561e-09 -4.14421e-06 2.97596e-07
1.40429e-06 1.11759e-09 -1.25782e-08
1.39166e-06 1.36172e-09 -1.26288e-08
1.38002e-06 2.12913e-09 -1.29671e-08
1.37645e-06 1.09151e-09 -1.22632e-08
1.36421e-06 1.33228e-09 -1.24967e-08
1.35254e-06 2.01043e-09 -1.257e-08
6.14983e-10 -5.17669e-06 3.6967e-07
-2.99846e-09 -3.11379e-06 2.25525e-07
-1.66091e-09 -4.14983e-06 2.98737e-07
1.47062e-09 -5.1839e-06 3.69269e-07
-2.88613e-09 -3.11834e-06 2.25482e-07
-1.76951e-09 -4.15587e-06 2.98447e-07
1.3451e-06 1.0586e-09 -1.21547e-08
1.333e-06 1.27411e-09 -1.24132e-08
1.32136e-06 1.88451e-09 -1.2413e-08
1.31801e-06 1.03427e-09 -1.20065e-08
1.30622e-06 1.26138e-09 -1.20477e-08
1.29465e-06 1.82039e-09 -1.18906e-08
1.02139e-09 -5.1913e-06 3.69503e-07
-2.90399e-09 -3.12271e-06 2.25648e-07
-2.33238e-09 -4.16165e-06 2.98645e-07
1.70052e-10 -5.19859e-06 3.6926e-07
1.02831e-15 -1.3287e-12 9.60849e-14
1.94235e-15 -2.55292e-12 1.84331e-13
-3.79e-16 -1.20135e-12 8.69444e-14
-5.52457e-16 -1.35096e-12 9.80532e-14
-4.76801e-10 -1.03489e-06 7.50503e-08
-1.06701e-09 -2.07011e-06 1.50068e-07
-5.1238e-16 -1.1699e-12 8.4731e-14
1.45258e-06 -9.14375e-11 2.00154e-09
1.45068e-06 1.13107e-10 -1.04925e-08
1.44498e-06 6.07116e-10 -1.02177e-08
-4.55013e-10 -1.03331e-06 7.46485e-08
-9.25265e-10 -2.06697e-06 1.49121e-07
1.48246e-06 -9.69646e-11 2.09692e-09
1.4805e-06 1.24711e-10 -1.06289e-08
1.47468e-06 6.4897e-10 -1.03232e-08
-5.1905e-10 -1.03173e-06 7.45527e-08
-8.94021e-10 -2.06383e-06 1.48862e-07
1.51581e-06 -1.22634e-10 2.12423e-09
1.51384e-06 1.30004e-10 -1.08183e-08
1.50792e-06 6.94303e-10 -1.03582e-08
-5.18506e-10 -1.03009e-06 7.44121e-08
-8.16992e-10 -2.06055e-06 1.4858e-07
1.54719e-06 -1.24458e-10 2.23666e-09
1.54516e-06 1.60013e-10 -1.07774e-08
1.53911e-06 7.55884e-10 -1.03137e-08
-6.22369e-10 -1.02843e-06 7.4277e-08
-9.07439e-10 -2.05724e-06 1.4825e-07
1.58196e-06 -1.97068e-10 1.93288e-09
1.57993e-06 1.28783e-10 -1.11973e-08
1.57383e-06 7.4547e-10 -1.09216e-08
-9.49551e-10 -2.05409e-06 1.47971e-07
-7.30573e-10 -1.02681e-06 7.41822e-08
-3.11452e-09 -3.10497e-06 2.25014e-07
-1.03356e-09 -4.13812e-06 2.98227e-07
4.47577e-10 -5.16934e-06 3.67849e-07
1.43673e-06 1.16087e-09 -1.28159e-08
1.42391e-06 1.40193e-09 -1.29669e-08
1.41243e-06 2.27557e-09 -1.37932e-08
-2.91801e-09 -3.10025e-06 2.2379e-07
-5.39937e-10 -4.13187e-06 2.96459e-07
6.64834e-10 -5.16139e-06 3.66442e-07
1.46617e-06 1.19701e-09 -1.2987e-08
1.45303e-06 1.44235e-09 -1.30746e-08
1.44153e-06 2.40693e-09 -1.41285e-08
-2.8471e-09 -3.09554e-06 2.2363e-07
-8.68437e-11 -4.12561e-06 2.96125e-07
1.15737e-09 -5.15373e-06 3.6549e-07
1.49923e-06 1.23132e-09 -1.30876e-08
1.48593e-06 1.49119e-09 -1.31321e-08
1.47421e-06 2.50344e-09 -1.45238e-08
-2.92417e-09 -3.09065e-06 2.22736e-07
-5.94194e-12 -4.11911e-06 2.95321e-07
1.14392e-09 -5.14545e-06 3.64959e-07
1.53019e-06 1.26439e-09 -1.33165e-08
1.51664e-06 1.5456e-09 -1.31922e-08
1.50452e-06 2.57819e-09 -1.51408e-08
-3.05646e-09 -3.0857e-06 2.22608e-07
6.16916e-11 -4.11253e-06 2.95414e-07
1.11664e-09 -5.13734e-06 3.64492e-07
1.56476e-06 1.26431e-09 -1.36553e-08
1.55107e-06 1.57207e-09 -1.34045e-08
-3.19491e-09 -3.08102e-06 2.22286e-07
2.02772e-10 -4.10633e-06 2.94876e-07
8.82008e-10 -5.12935e-06 3.63474e-07
1.53795e-06 2.6749e-09 -1.55621e-08
-1.40133e-08 -6.21266e-06 4.41946e-07
1.36402e-06 2.55209e-09 -2.08787e-08
1.34444e-06 3.14993e-09 -2.0541e-08
1.33716e-06 2.4514e-09 -2.06508e-08
-1.016e-08 -7.27254e-06 5.10821e-07
-1.1623e-08 -8.39298e-06 5.95535e-07
1.32556e-06 3.90337e-09 -2.14928e-08
-1.37037e-08 -6.22106e-06 4.41859e-07
-1.02393e-08 -7.28248e-06 5.10641e-07
-1.16081e-08 -8.40428e-06 5.94321e-07
1.31729e-06 3.04873e-09 -2.03614e-08
1.29895e-06 3.84326e-09 -2.09792e-08
1.30676e-06 2.3918e-09 -2.03851e-08
1.28773e-06 2.91654e-09 -2.07194e-08
1.26954e-06 3.70929e-09 -2.07732e-08
1.28065e-06 2.31846e-09 -2.01738e-08
-1.30594e-08 -6.22995e-06 4.42305e-07
-1.0274e-08 -7.29275e-06 5.1208e-07
-1.23153e-08 -8.416e-06 5.95142e-07
-1.27477e-08 -6.23871e-06 4.41588e-07
-1.08607e-08 -7.3029e-06 5.11217e-07
-1.31357e-08 -8.42755e-06 5.93509e-07
1.2615e-06 2.85353e-09 -2.04466e-08
1.24365e-06 3.65607e-09 -2.03298e-08
-1.95879e-08 -9.62847e-06 6.79013e-07
-1.8391e-08 -1.10443e-05 7.58998e-07
1.30114e-06 4.4513e-09 -2.16644e-08
1.27475e-06 4.93888e-09 -2.33256e-08
1.27533e-06 4.32416e-09 -2.13697e-08
1.24927e-06 4.79231e-09 -2.33275e-08
-3.41757e-08 -1.2684e-05 8.53991e-07
-2.08688e-08 -9.64095e-06 6.83482e-07
-2.0057e-08 -1.10588e-05 7.69445e-07
-3.5368e-08 -1.27001e-05 8.68037e-07
-1.95715e-08 -9.65439e-06 6.83198e-07
-1.99387e-08 -1.10738e-05 7.63736e-07
1.24604e-06 4.18493e-09 -2.21341e-08
1.22024e-06 4.63995e-09 -2.38403e-08
1.25015e-06 6.03776e-09 -2.79677e-08
1.22467e-06 5.90111e-09 -2.66078e-08
1.19681e-06 5.66408e-09 -2.60216e-08
1.22131e-06 4.06554e-09 -2.23537e-08
1.19582e-06 4.52818e-09 -2.40461e-08
-3.72851e-08 -1.27169e-05 8.65224e-07
-1.46865e-08 -6.2038e-06 4.39347e-07
-9.81799e-09 -7.26257e-06 5.06537e-07
-1.1711e-08 -8.38121e-06 5.93895e-07
1.39557e-06 2.6151e-09 -2.12513e-08
1.37532e-06 3.29606e-09 -2.06688e-08
1.35597e-06 4.00697e-09 -2.2051e-08
-1.4008e-08 -6.19454e-06 4.36139e-07
-8.57597e-09 -7.25159e-06 5.0363e-07
-9.6173e-09 -8.36903e-06 5.90517e-07
1.42394e-06 2.72322e-09 -2.11665e-08
1.40395e-06 3.38855e-09 -2.07495e-08
1.38409e-06 4.07491e-09 -2.25398e-08
-1.3381e-08 -6.18536e-06 4.34683e-07
-6.36417e-09 -7.24131e-06 4.99206e-07
-7.49197e-09 -8.35685e-06 5.87866e-07
1.45603e-06 2.80314e-09 -2.11347e-08
1.4352e-06 3.55804e-09 -2.03761e-08
-1.3097e-08 -6.17571e-06 4.33533e-07
-6.00444e-09 -7.22984e-06 4.99345e-07
-6.7376e-09 -8.34389e-06 5.87522e-07
1.48602e-06 2.9285e-09 -2.13931e-08
1.46555e-06 3.64512e-09 -2.06661e-08
-1.37648e-08 -6.16607e-06 4.31446e-07
-6.14797e-09 -7.21897e-06 4.98413e-07
-6.99415e-09 -8.33094e-06 5.87988e-07
1.51966e-06 3.01227e-09 -2.13292e-08
1.49842e-06 3.80109e-09 -2.04128e-08
-1.3945e-08 -6.15683e-06 4.29609e-07
-6.00139e-09 -7.20796e-06 4.99978e-07
-6.44407e-09 -8.31835e-06 5.89772e-07
1.4149e-06 4.22992e-09 -2.23832e-08
1.44486e-06 4.29477e-09 -2.26954e-08
1.47745e-06 4.44456e-09 -2.26071e-08
-2.04815e-08 -9.61508e-06 6.78664e-07
-1.93318e-08 -1.1029e-05 7.54515e-07
-3.41743e-08 -1.26674e-05 8.49701e-07
1.33171e-06 4.56643e-09 -2.17989e-08
1.30492e-06 5.08055e-09 -2.29094e-08
-1.89289e-08 -9.60125e-06 6.75685e-07
-1.6161e-08 -1.10134e-05 7.48787e-07
-3.1718e-08 -1.26496e-05 8.42787e-07
1.35892e-06 4.70875e-09 -2.17017e-08
1.33148e-06 5.25761e-09 -2.18008e-08
-1.66255e-08 -9.58737e-06 6.74115e-07
-1.27427e-08 -1.09973e-05 7.44511e-07
-2.82361e-08 -1.26317e-05 8.48082e-07
1.38965e-06 4.84358e-09 -2.11731e-08
1.36211e-06 5.42377e-09 -2.10363e-08
-1.63219e-08 -9.57301e-06 6.71524e-07
-1.05605e-08 -1.09809e-05 7.43329e-07
-2.99925e-08 -1.26138e-05 8.58356e-07
1.41837e-06 4.95045e-09 -2.08436e-08
1.39076e-06 5.60359e-09 -2.02948e-08
-1.59232e-08 -9.55867e-06 6.68573e-07
-9.99752e-09 -1.09644e-05 7.41921e-07
1.45083e-06 5.02852e-09 -1.97011e-08
1.4237e-06 5.8218e-09 -1.95298e-08
-1.46156e-08 -9.54485e-06 6.67174e-07
-7.72237e-09 -1.09486e-05 7.39037e-07
-3.00795e-08 -1.25962e-05 8.62278e-07