# vtk DataFile Version 3.0
vtk output
ASCII
DATASET POLYDATA
POINTS 5454 float
0.199834 0.275219 -0.014867
0.189804 0.27025 -0.0147024
0.219896 0.275171 -0.0146971
0.239946 0.275095 -0.014678
0.260011 0.275312 -0.0144775
0.320038 0.275247 -0.0145397
0.340007 0.275214 -0.0145317
0.359963 0.275179 -0.0145587
0.380104 0.275303 -0.0146443
0.400076 0.275291 -0.0145734
0.42005 0.275274 -0.0145311
0.44006 0.275244 -0.0145951
0.460036 0.275227 -0.0145934
0.480013 0.275203 -0.0146242
0.15977 0.275127 -0.0141798
0.17984 0.275069 -0.0143142
0.199844 0.265096 -0.0142323
0.20987 0.270107 -0.0144201
0.229923 0.270041 -0.0143047
0.250013 0.270201 -0.0141976
0.279999 0.275168 -0.0143845
0.299966 0.275126 -0.0143756
0.369929 0.270037 -0.0142211
0.390083 0.270156 -0.0142422
0.410055 0.270143 -0.0141848
0.450038 0.270097 -0.0142249
0.470013 0.270079 -0.0142408
0.489989 0.270053 -0.014291
0.169809 0.27002 -0.013957
0.189817 0.260011 -0.0140993
0.219902 0.264951 -0.0140085
0.23995 0.264885 -0.0139586
0.270008 0.270063 -0.0140811
0.289981 0.270026 -0.0140337
0.309938 0.269986 -0.0140456
0.330017 0.269982 -0.0141393
0.349974 0.269949 -0.0141418
0.380095 0.264982 -0.0139678
0.430019 0.269987 -0.014123
0.440042 0.264922 -0.0139048
0.460015 0.26491 -0.0139016
0.479989 0.26489 -0.0139361
0.499994 0.275149 -0.0146781
0.800166 0.275219 -0.0148671
0.519988 0.275203 -0.0146243
0.539965 0.275227 -0.0145934
0.55994 0.275244 -0.0145951
0.579951 0.275273 -0.0145313
0.599924 0.27529 -0.0145734
0.619896 0.275302 -0.0146442
0.640037 0.275178 -0.0145587
0.659993 0.275213 -0.0145316
0.679962 0.275246 -0.0145398
0.739989 0.275312 -0.0144776
0.810196 0.270251 -0.0147025
0.760054 0.275095 -0.0146777
0.780104 0.275172 -0.014697
0.510011 0.270054 -0.0142911
0.529987 0.270079 -0.0142408
0.549962 0.270097 -0.0142249
0.589946 0.270142 -0.014185
0.609917 0.270156 -0.0142422
0.630071 0.270037 -0.0142213
0.749987 0.270201 -0.014198
0.700034 0.275125 -0.0143748
0.720001 0.275167 -0.0143841
0.800156 0.265097 -0.0142323
0.770077 0.270041 -0.0143045
0.790131 0.270107 -0.0144201
0.82016 0.275069 -0.0143137
0.84023 0.275127 -0.0141794
0.500036 0.264863 -0.0140079
0.520011 0.264891 -0.013936
0.539985 0.26491 -0.0139015
0.559958 0.264922 -0.0139047
0.619905 0.264982 -0.0139679
0.569981 0.269987 -0.0141234
0.650026 0.269949 -0.0141419
0.669984 0.269982 -0.0141394
0.690062 0.269986 -0.0140446
0.710019 0.270026 -0.0140332
0.729992 0.270063 -0.014081
0.810183 0.260012 -0.0140993
0.76005 0.264885 -0.0139583
0.780098 0.264951 -0.0140084
0.830191 0.270021 -0.0139564
0.11951 0.365242 -0.0184569
0.109468 0.37027 -0.0181963
0.119464 0.375333 -0.0192737
0.109418 0.380378 -0.0189674
0.119418 0.385487 -0.0200597
0.099389 0.385387 -0.0185105
0.0994388 0.375292 -0.0177825
0.0894402 0.380313 -0.0171444
0.0794805 0.385327 -0.0163183
0.109522 0.360204 -0.0173878
0.0995001 0.36525 -0.0170127
0.119563 0.355158 -0.0176543
0.0895078 0.37028 -0.0164184
0.0795347 0.375298 -0.0156711
0.119607 0.345147 -0.0168722
0.109583 0.350169 -0.0166254
0.0995606 0.355194 -0.0162808
0.0895686 0.360247 -0.015698
0.11962 0.335131 -0.0161857
0.109614 0.340175 -0.0159026
0.0996045 0.345218 -0.0155068
0.079587 0.365305 -0.0149821
0.0695832 0.38034 -0.014688
0.109369 0.390536 -0.019671
0.0893858 0.390377 -0.0177752
0.0695477 0.390338 -0.0151749
0.119361 0.395711 -0.0208205
0.0993326 0.395538 -0.0191571
0.0794215 0.395384 -0.0168688
0.109303 0.400731 -0.0204727
0.0893158 0.400537 -0.0184632
0.0694757 0.400403 -0.0157563
0.119635 0.325114 -0.01558
0.0896199 0.35027 -0.0149667
0.10964 0.33018 -0.0152662
0.119645 0.315084 -0.0150203
0.099647 0.335251 -0.0148361
0.109652 0.320156 -0.0146906
0.0796502 0.355352 -0.0143023
0.0696356 0.370397 -0.0140899
0.0896736 0.340319 -0.0142443
0.119674 0.305067 -0.0144833
0.0996738 0.32525 -0.0142258
0.109677 0.310091 -0.0141352
0.119698 0.294925 -0.0139318
0.169795 0.280192 -0.0146046
0.149723 0.280174 -0.0143491
0.159751 0.285197 -0.0148096
0.179832 0.285121 -0.014939
0.139674 0.28528 -0.0144587
0.149697 0.290227 -0.0149803
0.169785 0.290148 -0.0152009
0.159744 0.295206 -0.0153831
0.179834 0.29513 -0.0154861
0.139656 0.295292 -0.0150486
0.149699 0.300237 -0.0155357
0.169797 0.30017 -0.0157291
0.159754 0.305227 -0.015931
0.179853 0.305161 -0.0160025
0.139654 0.305307 -0.0156207
0.149705 0.31026 -0.0160994
0.169813 0.3102 -0.0162672
0.159766 0.315256 -0.0164887
0.179874 0.315195 -0.0165379
0.139656 0.315335 -0.0161919
0.149711 0.320288 -0.0166806
0.169829 0.320231 -0.0168367
0.129595 0.320364 -0.0162357
0.179883 0.325208 -0.0171259
0.139647 0.325342 -0.0168063
0.159773 0.325292 -0.0171051
0.169828 0.330247 -0.0174788
0.149705 0.330333 -0.0173383
0.129576 0.330416 -0.0168888
0.159757 0.335311 -0.0178016
0.179886 0.335249 -0.017822
0.139624 0.335394 -0.017514
0.149675 0.340357 -0.0180949
0.169817 0.340294 -0.0182374
0.129534 0.340439 -0.017629
0.129603 0.310366 -0.0156645
0.12961 0.300344 -0.0150841
0.129619 0.290339 -0.0145083
0.189783 0.280244 -0.0153409
0.209862 0.280198 -0.0150902
0.229925 0.280142 -0.0149778
0.199821 0.285229 -0.0155337
0.219898 0.28514 -0.015318
0.239952 0.285046 -0.0152604
0.189758 0.290257 -0.0160375
0.209861 0.290191 -0.0157419
0.229932 0.29009 -0.0155845
0.199819 0.295209 -0.0161677
0.219913 0.295118 -0.0158986
0.23997 0.295025 -0.0157876
0.189755 0.300203 -0.0166569
0.20988 0.300149 -0.0163077
0.229961 0.30006 -0.0160844
0.199829 0.305184 -0.0167537
0.219942 0.305128 -0.0164375
0.240005 0.305042 -0.0162579
0.189752 0.310224 -0.017286
0.209901 0.310139 -0.0168584
0.229996 0.310083 -0.0165867
0.199839 0.315189 -0.0173363
0.21997 0.315136 -0.01697
0.240039 0.315057 -0.0167302
0.189747 0.320239 -0.017907
0.209919 0.320152 -0.0174347
0.230028 0.320099 -0.0171141
0.199844 0.32522 -0.0179724
0.219995 0.325163 -0.01756
0.240071 0.325087 -0.0172645
0.189734 0.330284 -0.0186033
0.209932 0.330189 -0.0180891
0.230055 0.330131 -0.0177211
0.199843 0.335279 -0.0186911
0.220011 0.33519 -0.0182121
0.240097 0.335125 -0.0179055
0.189712 0.340332 -0.0193576
0.209937 0.340252 -0.0188492
0.230072 0.340172 -0.0184076
0.159718 0.345362 -0.0186776
0.179858 0.345304 -0.0186972
0.139572 0.345441 -0.0183775
0.149614 0.35043 -0.0190956
0.169767 0.350372 -0.0192689
0.129461 0.350509 -0.0185951
0.159652 0.355455 -0.0198229
0.179803 0.3554 -0.0198728
0.139493 0.355518 -0.0194791
0.14955 0.360479 -0.0200907
0.169713 0.360444 -0.0202881
0.129384 0.360525 -0.0195778
0.139436 0.36552 -0.0203209
0.159608 0.365507 -0.0206851
0.179767 0.365486 -0.0207531
0.12932 0.370525 -0.0204413
0.149498 0.370537 -0.0209875
0.169669 0.370538 -0.0211933
0.179725 0.375666 -0.0216411
0.13938 0.375585 -0.0212065
0.159559 0.37561 -0.0215882
0.129267 0.380603 -0.0212799
0.149451 0.380659 -0.0218483
0.169626 0.380693 -0.0220919
0.179688 0.385897 -0.0225374
0.139337 0.385721 -0.0220082
0.159518 0.385783 -0.0224372
0.169592 0.390907 -0.0228928
0.149419 0.39086 -0.0225935
0.129221 0.390717 -0.0221031
0.179648 0.395984 -0.0234114
0.139298 0.395879 -0.0227383
0.159483 0.395956 -0.0232108
0.149362 0.400985 -0.0234525
0.169543 0.401044 -0.0237874
0.129169 0.400908 -0.0228192
0.19982 0.345337 -0.0195818
0.220011 0.345247 -0.0191197
0.240107 0.345177 -0.0187053
0.18966 0.350429 -0.0204107
0.209911 0.350316 -0.019924
0.230064 0.350232 -0.0194462
0.199769 0.355431 -0.0208317
0.21998 0.355313 -0.0203848
0.240091 0.355239 -0.0199335
0.189602 0.360508 -0.0215761
0.209878 0.360403 -0.0210207
0.230046 0.360296 -0.0206016
0.199734 0.365506 -0.0218277
0.219966 0.365429 -0.0212829
0.240084 0.365386 -0.020833
0.189551 0.370611 -0.0226328
0.209851 0.370537 -0.0220188
0.230033 0.370489 -0.0215148
0.199695 0.375677 -0.0228515
0.219945 0.375624 -0.0222753
0.240071 0.375594 -0.0218246
0.189497 0.380838 -0.0236632
0.209823 0.380791 -0.0230008
0.230018 0.380759 -0.0224776
0.219924 0.385951 -0.0232354
0.240057 0.385925 -0.0227818
0.199649 0.385972 -0.0238132
0.229995 0.391005 -0.0234767
0.189431 0.391068 -0.0246596
0.209782 0.391032 -0.023949
0.240035 0.396058 -0.0236733
0.199602 0.396144 -0.0247136
0.219889 0.3961 -0.0240738
0.189383 0.40127 -0.0254209
0.20975 0.401225 -0.0246988
0.229971 0.401174 -0.0241264
0.249955 0.401326 -0.024035
0.249965 0.391201 -0.0231303
0.249979 0.380974 -0.0222068
0.249985 0.370746 -0.0212052
0.249988 0.360603 -0.0202592
0.249989 0.350628 -0.0192387
0.0596745 0.405412 -0.0141049
0.0595235 0.415373 -0.014661
0.0593747 0.425476 -0.0153699
0.0495363 0.430327 -0.0138268
0.0592835 0.435705 -0.015804
0.0494154 0.440397 -0.0142109
0.05923 0.445712 -0.0161667
0.0493512 0.450593 -0.0143901
0.0591905 0.455734 -0.0163559
0.0493272 0.460656 -0.0143939
0.0591789 0.465775 -0.0162607
0.119275 0.405768 -0.0216925
0.0992468 0.405738 -0.0199265
0.0793126 0.405515 -0.0175508
0.109205 0.410803 -0.0212857
0.0892246 0.410745 -0.0191228
0.0693741 0.410539 -0.0162927
0.11918 0.415856 -0.0225464
0.0991524 0.415806 -0.020665
0.0792281 0.415733 -0.0180961
0.10911 0.420882 -0.0221112
0.0891353 0.420806 -0.0198113
0.06928 0.420693 -0.0168123
0.119097 0.425957 -0.0233937
0.0990684 0.425884 -0.0214117
0.0791496 0.425777 -0.0187009
0.109036 0.430975 -0.0228283
0.0890586 0.430868 -0.0204481
0.0692004 0.430748 -0.0173507
0.119032 0.436082 -0.0240698
0.0989966 0.43597 -0.0220373
0.0790787 0.435833 -0.0192452
0.108972 0.441094 -0.0234133
0.0889905 0.440948 -0.0209791
0.0691375 0.440793 -0.0177969
0.118969 0.446225 -0.0246238
0.098932 0.446082 -0.0225061
0.0790132 0.445903 -0.0196655
0.10892 0.451243 -0.0237453
0.0889312 0.451046 -0.0213119
0.0690798 0.450836 -0.0180799
0.118936 0.456414 -0.0247651
0.0988918 0.456212 -0.0226829
0.0789667 0.455984 -0.019854
0.108888 0.461394 -0.02382
0.088902 0.461155 -0.0213563
0.0690453 0.460899 -0.0181437
0.0493257 0.470673 -0.014113
0.0591863 0.475824 -0.0157777
0.0592139 0.485851 -0.0151411
0.0592685 0.495845 -0.0143046
0.0988718 0.466358 -0.0225425
0.118906 0.46657 -0.0246918
0.0789408 0.466068 -0.0197596
0.0690326 0.470956 -0.0179308
0.0888874 0.471269 -0.0210655
0.108862 0.471542 -0.0235507
[...]
POINT_DATA 5454
VECTORS alpha float
6.7161e-09 1.43513e-05 -9.58361e-07
4.62285e-06 -1.25165e-08 7.84626e-08
1.49294e-08 1.33652e-05 -8.94381e-07
2.01561e-08 1.19259e-05 -7.91586e-07
1.49743e-08 1.04185e-05 -7.35028e-07
9.52411e-09 6.68453e-06 -4.859e-07
7.42976e-09 5.80509e-06 -4.19042e-07
5.68145e-09 5.02614e-06 -3.60049e-07
3.87988e-09 4.30463e-06 -3.1557e-07
2.15524e-09 3.59192e-06 -2.63412e-07
8.55689e-10 2.87869e-06 -2.11131e-07
1.23592e-09 2.16046e-06 -1.57705e-07
3.98293e-10 1.4405e-06 -1.04405e-07
-1.58667e-11 7.20179e-07 -5.18281e-08
7.59969e-09 1.37069e-05 -8.66496e-07
2.10282e-08 1.44893e-05 -9.13222e-07
5.7198e-09 1.45029e-05 -9.69646e-07
4.92929e-06 -1.53646e-08 5.01299e-08
5.27724e-06 -1.80099e-08 9.63555e-09
5.63752e-06 -8.28304e-09 3.87177e-08
1.43582e-08 8.95939e-06 -6.17804e-07
1.29551e-08 7.71003e-06 -5.32836e-07
7.48236e-06 -1.32772e-08 -2.28008e-08
7.669e-06 -4.22268e-09 2.85769e-08
7.80678e-06 -6.58986e-09 1.68623e-08
7.98198e-06 -5.7392e-09 8.89414e-10
8.02808e-06 -8.84251e-09 -1.31937e-08
8.05067e-06 -1.19566e-08 -2.71505e-08
4.3699e-06 -1.1681e-08 -2.27804e-08
5.03338e-06 -1.09251e-08 9.86561e-08
1.43168e-08 1.35323e-05 -8.80822e-07
2.00305e-08 1.21068e-05 -7.8413e-07
6.00855e-06 -1.06748e-08 2.47987e-08
6.36795e-06 -1.23514e-08 6.29297e-09
6.70139e-06 -1.40136e-08 -1.26191e-08
7.01008e-06 -1.09764e-08 7.31909e-09
7.26729e-06 -1.29306e-08 -7.73221e-09
3.70907e-09 4.38837e-06 -3.10493e-07
7.90885e-06 -9.98182e-09 6.04018e-09
1.1831e-09 2.19431e-06 -1.54215e-07
3.47545e-10 1.4619e-06 -1.02182e-07
-4.79491e-11 7.30498e-07 -5.07902e-08
1.07005e-13 3.6581e-10 -2.57716e-11
6.71505e-09 -1.43512e-05 9.58518e-07
-1.70922e-11 -7.1951e-07 5.17887e-08
3.95547e-10 -1.44001e-06 1.04378e-07
1.23178e-09 -2.1602e-06 1.57688e-07
8.51566e-10 -2.87867e-06 2.11117e-07
2.15102e-09 -3.59211e-06 2.63389e-07
3.87601e-09 -4.30496e-06 3.15524e-07
5.6804e-09 -5.02655e-06 3.60024e-07
7.42863e-09 -5.80547e-06 4.18999e-07
9.5228e-09 -6.68483e-06 4.85832e-07
1.49683e-08 -1.04185e-05 7.34978e-07
4.62286e-06 1.25541e-08 -7.84757e-08
2.01592e-08 -1.19259e-05 7.91545e-07
1.4931e-08 -1.33651e-05 8.94429e-07
8.0506e-06 1.18169e-08 2.71929e-08
8.02783e-06 8.74403e-09 1.32194e-08
7.98159e-06 5.68273e-09 -8.77199e-10
7.80632e-06 6.55835e-09 -1.67739e-08
7.66858e-06 4.20578e-09 -2.85183e-08
7.48205e-06 1.31855e-08 2.28636e-08
5.63753e-06 8.2867e-09 -3.88443e-08
1.29485e-08 -7.71031e-06 5.32736e-07
1.43516e-08 -8.95955e-06 6.17721e-07
5.72206e-09 -1.45028e-05 9.69774e-07
5.27727e-06 1.80862e-08 -9.69741e-09
4.92931e-06 1.54204e-08 -5.01641e-08
2.10213e-08 -1.44893e-05 9.13447e-07
7.59239e-09 -1.37069e-05 8.6672e-07
1.19228e-13 3.20289e-10 -2.21618e-11
-4.89562e-11 -7.29913e-07 5.07587e-08
3.45182e-10 -1.46146e-06 1.02162e-07
1.17944e-09 -2.19409e-06 1.54202e-07
3.70486e-09 -4.38866e-06 3.10454e-07
7.9084e-06 9.93481e-09 -5.9211e-09
7.26706e-06 1.28627e-08 7.7329e-09
7.00994e-06 1.09309e-08 -7.37218e-09
6.70132e-06 1.39941e-08 1.24678e-08
6.36793e-06 1.23401e-08 -6.43727e-09
6.00855e-06 1.06713e-08 -2.49352e-08
5.03338e-06 1.09712e-08 -9.86503e-08
2.00372e-08 -1.21068e-05 7.84051e-07
1.43219e-08 -1.35322e-05 8.80837e-07
4.36991e-06 1.17023e-08 2.27667e-08
9.54437e-09 1.03692e-05 -7.99622e-07
1.52663e-05 4.88178e-09 -1.09372e-06
-3.7022e-09 9.63105e-06 -7.78806e-07
1.72531e-05 2.49545e-08 -1.28612e-06
-1.3192e-08 8.60165e-06 -7.06016e-07
-1.75878e-08 8.65252e-06 -6.98929e-07
-7.38154e-09 9.77889e-06 -7.75514e-07
1.49297e-05 2.50207e-08 -1.60192e-06
-4.26267e-08 1.35634e-05 -1.04805e-06
1.30347e-05 -1.33789e-08 -9.06859e-07
3.95385e-09 1.06358e-05 -7.97726e-07
2.74543e-08 1.08467e-05 -7.67382e-07
1.34974e-05 7.05588e-09 -1.41357e-06
-3.78971e-08 1.47356e-05 -1.10623e-06
3.71977e-08 1.11101e-05 -7.08259e-07
1.08503e-05 -2.8097e-08 -7.37033e-07
1.23958e-08 1.1233e-05 -7.70964e-07
1.17792e-05 -2.35205e-08 -1.19606e-06
4.33954e-08 1.12114e-05 -6.64151e-07
8.91138e-06 -2.90565e-08 -5.99091e-07
2.3486e-08 1.1621e-05 -7.13013e-07
-2.71369e-08 1.56774e-05 -1.11091e-06
1.24998e-05 5.78823e-09 -1.76871e-06
1.86539e-05 4.41339e-08 -1.48268e-06
1.57994e-05 4.89143e-08 -1.75848e-06
1.29531e-05 3.96253e-08 -1.89602e-06
-1.34271e-08 7.26022e-06 -5.80587e-07
-1.74878e-08 7.25706e-06 -5.70511e-07
-3.74023e-08 1.21677e-05 -9.14891e-07
1.90811e-05 4.96356e-08 -1.64259e-06
1.57866e-05 6.97229e-08 -1.8606e-06
1.26608e-05 5.95779e-08 -1.92121e-06
4.03062e-08 1.12026e-05 -6.25747e-07
1.00455e-05 -3.2164e-08 -9.95699e-07
7.28015e-06 -2.68757e-08 -4.79967e-07
3.6326e-08 1.11352e-05 -6.07443e-07
2.53566e-08 1.18342e-05 -6.65762e-07
6.03868e-06 -2.33896e-08 -3.8881e-07
-1.30171e-08 1.64034e-05 -1.09283e-06
1.15459e-05 -6.93792e-09 -1.59314e-06
8.46413e-06 -2.43743e-08 -8.20704e-07
2.48901e-08 1.10472e-05 -5.95362e-07
2.50875e-08 1.1922e-05 -6.17328e-07
5.13319e-06 -2.2832e-08 -3.17424e-07
1.3785e-08 1.09676e-05 -5.86384e-07
4.29553e-06 -1.32679e-08 -2.84919e-08
4.19108e-06 -1.06343e-08 -6.87424e-08
2.00445e-08 1.36587e-05 -8.40345e-07
3.27251e-08 1.44088e-05 -8.73365e-07
9.01396e-09 1.21963e-05 -7.63117e-07
4.13878e-06 -1.51226e-08 -6.79327e-08
4.13298e-06 -1.78313e-08 -2.03829e-08
2.96546e-08 1.367e-05 -8.04397e-07
4.17618e-08 1.43892e-05 -8.26155e-07
1.8251e-08 1.22314e-05 -7.3794e-07
4.30571e-06 -1.30529e-08 -6.55717e-08
4.18955e-06 -1.55263e-08 -1.42988e-08
3.72242e-08 1.37394e-05 -7.89646e-07
4.85406e-08 1.44327e-05 -8.08762e-07
2.58605e-08 1.23149e-05 -7.25392e-07
4.79784e-06 -1.28289e-08 -6.80521e-08
4.59207e-06 -1.5282e-08 -8.85308e-09
4.06567e-08 1.38526e-05 -8.00991e-07
5.12115e-08 1.45316e-05 -8.16772e-07
2.96987e-08 1.24267e-05 -7.38415e-07
5.73792e-06 -1.46437e-08 -7.97069e-08
5.47995e-06 -1.73766e-08 -6.03633e-09
5.94607e-06 -1.19388e-08 -1.80606e-07
4.68336e-08 1.46725e-05 -8.4993e-07
2.68487e-08 1.25375e-05 -7.78469e-07
3.83071e-08 1.39884e-05 -8.4584e-07
6.92935e-06 -2.12835e-08 -3.45263e-09
7.17259e-06 -2.02082e-08 -9.92859e-08
7.31368e-06 -1.78876e-08 -2.28031e-07
2.81307e-08 1.41102e-05 -9.04693e-07
3.47802e-08 1.48236e-05 -9.16788e-07
2.09981e-08 1.26096e-05 -8.37841e-07
9.19089e-06 -2.75873e-08 -1.28927e-07
9.04963e-06 -3.0095e-08 2.35998e-09
9.16996e-06 -2.68937e-08 -2.99264e-07
4.99751e-06 -1.05215e-08 -1.49292e-07
4.44737e-06 -1.04347e-08 -1.35273e-07
4.19153e-06 -1.20491e-08 -1.30774e-07
4.4685e-06 -1.54684e-08 7.50355e-08
4.69595e-06 -1.7978e-08 4.61597e-08
4.97434e-06 -2.07266e-08 1.01287e-08
1.36013e-08 1.42275e-05 -9.11343e-07
1.91423e-08 1.32177e-05 -8.34897e-07
2.24938e-08 1.17646e-05 -7.31229e-07
4.19554e-06 -1.92686e-08 8.08223e-08
4.31004e-06 -2.12806e-08 5.18979e-08
4.48507e-06 -2.29004e-08 1.8544e-08
1.83557e-08 1.41853e-05 -8.60053e-07
2.28589e-08 1.31435e-05 -7.833e-07
2.50771e-08 1.16631e-05 -6.81805e-07
4.13331e-06 -1.72711e-08 9.06452e-08
4.11872e-06 -1.81524e-08 6.22789e-08
4.16962e-06 -1.84542e-08 3.17577e-08
2.31637e-08 1.42161e-05 -8.11751e-07
2.74835e-08 1.31374e-05 -7.45297e-07
2.86054e-08 1.16207e-05 -6.50138e-07
4.42882e-06 -1.90343e-08 1.11454e-07
4.28453e-06 -1.78209e-08 7.65395e-08
4.20327e-06 -1.76329e-08 4.56741e-08
2.68233e-08 1.43056e-05 -7.90899e-07
3.01391e-08 1.3192e-05 -7.25349e-07
3.01729e-08 1.1638e-05 -6.33952e-07
5.23785e-06 -2.35681e-08 1.42221e-07
4.9745e-06 -2.03609e-08 1.00647e-07
4.76062e-06 -1.85462e-08 6.4705e-08
2.76953e-08 1.44442e-05 -8.1238e-07
3.0631e-08 1.33037e-05 -7.43071e-07
3.01214e-08 1.1715e-05 -6.49905e-07
6.67016e-06 -3.36644e-08 1.93024e-07
6.32886e-06 -2.71619e-08 1.42489e-07
6.01155e-06 -2.27166e-08 9.83012e-08
2.46513e-08 1.46103e-05 -8.84063e-07
2.65503e-08 1.34595e-05 -8.04226e-07
2.72933e-08 1.18401e-05 -7.09079e-07
8.85489e-06 -4.73339e-08 2.62525e-07
8.49246e-06 -3.92169e-08 2.11425e-07
8.11278e-06 -2.73287e-08 1.57447e-07
1.76532e-08 1.41786e-05 -1.01772e-06
2.15615e-08 1.49519e-05 -1.03486e-06
1.3322e-08 1.25964e-05 -9.3757e-07
1.17456e-05 -3.31484e-08 -1.91008e-07
1.18203e-05 -3.54569e-08 -7.48686e-09
1.14462e-05 -3.45588e-08 -4.16644e-07
5.2389e-09 1.41415e-05 -1.19523e-06
6.97934e-09 1.50077e-05 -1.23464e-06
2.62342e-09 1.24454e-05 -1.08895e-06
1.47771e-05 -2.46897e-08 -2.56415e-07
1.51874e-05 -2.89729e-08 -3.03962e-08
1.40813e-05 -2.64176e-08 -5.28826e-07
-5.20027e-09 1.21167e-05 -1.15481e-06
-5.51706e-09 1.39489e-05 -1.30893e-06
-6.31999e-09 1.49423e-05 -1.3736e-06
1.68544e-05 1.41038e-08 -6.13265e-07
1.80487e-05 4.32753e-09 -3.08232e-07
1.8906e-05 -5.91523e-09 -5.97112e-08
-2.14137e-08 1.47017e-05 -1.43873e-06
-1.30872e-08 1.15383e-05 -1.16235e-06
-1.76531e-08 1.35345e-05 -1.35648e-06
1.9459e-05 6.18531e-08 -7.2359e-07
2.1257e-05 4.58382e-08 -3.93354e-07
2.26855e-05 2.70179e-08 -1.2555e-07
-3.33428e-08 1.42009e-05 -1.43679e-06
-1.65116e-08 1.06651e-05 -1.08718e-06
-2.59999e-08 1.28409e-05 -1.32185e-06
2.60374e-05 6.51322e-08 -2.43054e-07
2.39503e-05 9.56062e-08 -5.19429e-07
2.14947e-05 9.87935e-08 -8.35504e-07
-4.57602e-08 1.33755e-05 -1.36766e-06
-1.73322e-08 9.45677e-06 -9.28227e-07
-3.17111e-08 1.18163e-05 -1.19529e-06
2.56239e-05 9.41492e-08 -5.83188e-07
2.84036e-05 5.9311e-08 -2.94595e-07
2.25078e-05 1.24039e-07 -9.22873e-07
1.75731e-08 1.47767e-05 -1.03968e-06
2.0379e-08 1.36283e-05 -9.52431e-07
2.00224e-08 1.20013e-05 -8.33478e-07
1.18076e-05 -7.20325e-08 3.34222e-07
1.15155e-05 -5.79792e-08 2.95802e-07
1.11513e-05 -3.69896e-08 2.46789e-07
4.57283e-09 1.48963e-05 -1.3258e-06
6.87269e-09 1.37816e-05 -1.22461e-06
6.92515e-09 1.21637e-05 -1.07983e-06
1.54867e-05 -9.29338e-08 4.54516e-07
1.53646e-05 -6.69542e-08 3.96875e-07
1.51028e-05 -4.58339e-08 3.45279e-07
-5.70226e-09 1.49483e-05 -1.50018e-06
-4.65569e-09 1.39077e-05 -1.38359e-06
-4.25302e-09 1.23189e-05 -1.22128e-06
1.96494e-05 -8.49717e-08 6.5002e-07
1.98033e-05 -6.04496e-08 5.50195e-07
1.97384e-05 -3.33929e-08 4.44271e-07
-1.76187e-08 1.48684e-05 -1.62361e-06
-1.6866e-08 1.39282e-05 -1.50752e-06
-1.58212e-08 1.24001e-05 -1.33248e-06
2.40237e-05 -6.40263e-08 8.68574e-07
2.45841e-05 -4.87815e-08 7.22821e-07
2.48396e-05 -3.00658e-08 5.64746e-07
-2.94839e-08 1.37878e-05 -1.56546e-06
-2.74597e-08 1.23579e-05 -1.38949e-06
-2.82905e-08 1.45842e-05 -1.65381e-06
2.98765e-05 -4.99864e-08 7.2143e-07
2.8092e-05 -5.33415e-08 1.09546e-06
2.91808e-05 -4.9082e-08 9.10922e-07
-3.85663e-08 1.20864e-05 -1.36969e-06
-3.46316e-08 1.39682e-05 -1.56044e-06
-3.74811e-08 1.33617e-05 -1.49046e-06
3.12046e-05 -6.64318e-08 1.2261e-06
3.29116e-05 -7.9711e-08 1.05377e-06
3.4151e-05 -8.96898e-08 8.50129e-07
3.51529e-05 -6.75356e-08 7.82316e-07
3.04325e-05 -1.68448e-08 5.8872e-07
2.5011e-05 -3.43238e-08 4.48929e-07
1.96202e-05 -6.55901e-08 2.92587e-07
1.48304e-05 -7.02761e-08 1.8462e-07
1.08091e-05 -6.65051e-08 6.21306e-08
-7.71372e-08 2.44135e-05 -1.40321e-06
-2.2143e-08 2.30615e-05 -1.40893e-06
6.48549e-09 2.19612e-05 -1.26305e-06
2.97489e-06 -3.6947e-09 -5.88027e-07
3.60309e-08 2.13285e-05 -1.00659e-06
-1.71155e-06 -5.88124e-09 3.46806e-07
5.73647e-08 2.13609e-05 -7.49692e-07
-7.77251e-06 -6.00105e-08 1.58847e-06
8.63237e-08 2.23997e-05 -4.08988e-07
-1.52035e-05 -1.53215e-07 3.12793e-06
1.43668e-07 2.47647e-05 1.12215e-07
-1.38885e-08 5.63564e-06 -4.61407e-07
-1.54638e-08 5.64616e-06 -4.37626e-07
-3.16134e-08 1.06398e-05 -7.82766e-07
1.80703e-05 4.59664e-08 -1.63282e-06
1.45154e-05 7.73404e-08 -1.81659e-06
1.13331e-05 7.36931e-08 -1.79713e-06
-9.87752e-09 3.79107e-06 -3.10251e-07
-1.04838e-08 3.90054e-06 -2.94206e-07
-2.01326e-08 9.08059e-06 -6.07144e-07
1.50271e-05 4.44891e-08 -1.46829e-06
1.15327e-05 6.56329e-08 -1.52876e-06
8.6356e-06 6.73837e-08 -1.44201e-06
-4.81232e-09 1.85872e-06 -1.42087e-07
-5.43541e-09 2.17531e-06 -1.51701e-07
-1.45024e-08 7.64544e-06 -4.6558e-07
9.51328e-06 3.67847e-08 -9.68609e-07
6.50122e-06 4.20028e-08 -8.9613e-07
4.33217e-06 3.87586e-08 -7.49871e-07
-4.32962e-11 1.99742e-08 -1.32862e-09
-1.34834e-09 6.78825e-07 -4.09296e-08
-8.54718e-09 6.56438e-06 -3.41325e-07
1.09419e-06 5.75582e-09 -1.15115e-07
-8.92047e-07 -6.82218e-09 1.26835e-07
-1.78781e-06 -1.76174e-08 3.18265e-07
1.98787e-09 -1.47159e-06 7.63387e-08
3.21502e-10 -3.23452e-07 1.47258e-08
-1.41912e-09 6.1067e-06 -2.32277e-07
-1.05777e-05 -7.8399e-08 1.12322e-06
-1.08834e-05 -1.02254e-07 1.57495e-06
-9.86987e-06 -1.11871e-07 1.78861e-06
-3.82128e-10 -2.30217e-06 6.75151e-08
-3.14071e-10 -5.10416e-07 1.23505e-08
8.79085e-09 6.58458e-06 -1.21915e-07
-2.56949e-05 -2.35779e-07 2.73069e-06
-2.35782e-05 -2.73384e-07 3.40609e-06
-1.99517e-05 -2.58503e-07 3.63176e-06
-2.39224e-05 -2.87127e-07 4.8905e-06
2.58605e-07 2.87436e-05 9.47353e-07
4.35051e-07 3.46171e-05 2.24483e-06
6.94814e-07 4.26458e-05 4.19935e-06
1.54016e-09 4.83784e-07 1.6984e-09
-5.10097e-09 -2.09639e-06 3.25781e-09
3.23765e-08 8.34177e-06 5.77846e-08
-3.19708e-05 -4.76497e-07 5.71538e-06
-3.89509e-05 -5.46453e-07 5.50329e-06
-4.42918e-05 -4.97769e-07 4.65101e-06
1.97118e-08 3.04774e-06 1.09274e-07
8.65801e-08 1.17348e-05 4.49432e-07
-2.54997e-09 -4.47168e-07 -1.4647e-08
-5.6788e-05 -8.69327e-07 7.84024e-06
-4.57379e-05 -7.72852e-07 7.85414e-06
-6.61866e-05 -8.12369e-07 6.81789e-06
1.92671e-07 1.70972e-05 1.26064e-06
2.90855e-08 3.06664e-06 2.2867e-07
8.02554e-08 7.56783e-06 5.68423e-07
-6.08661e-05 -1.10287e-06 1.04502e-05
-9.09919e-05 -1.21389e-06 9.42371e-06
-7.67064e-05 -1.25509e-06 1.06493e-05
3.81135e-07 2.47378e-05 2.7472e-06
1.1998e-07 8.85254e-06 1.04996e-06
2.13186e-07 1.44061e-05 1.6732e-06
-0.000118137 -1.62343e-06 1.21165e-05
-9.81928e-05 -1.64375e-06 1.34463e-05
-7.69411e-05 -1.41693e-06 1.30246e-05
4.42617e-07 2.38853e-05 3.80067e-06
2.98587e-07 1.72887e-05 2.85489e-06
6.6897e-07 3.49189e-05 5.2331e-06
-0.000120592 -1.97638e-06 1.60175e-05
-0.000146881 -2.00295e-06 1.47156e-05
-9.34164e-05 -1.6769e-06 1.52572e-05
8.00353e-07 3.6262e-05 7.37581e-06
5.99527e-07 2.86971e-05 6.1277e-06
1.07163e-06 4.78334e-05 9.05266e-06
-0.000143191 -2.20676e-06 1.81156e-05
-0.0001764 -2.29122e-06 1.69304e-05
1.31394e-06 5.17289e-05 1.28396e-05
1.05798e-06 4.33385e-05 1.14158e-05
-5.26006e-08 1.221e-05 -1.24395e-06
-2.95272e-08 1.04329e-05 -9.99481e-07
-1.25567e-08 7.90797e-06 -7.16917e-07
2.56369e-05 8.65667e-08 -6.39803e-07
2.9079e-05 5.14146e-08 -3.83706e-07
2.19426e-05 1.10912e-07 -9.34467e-07
-2.20529e-08 8.70211e-06 -7.65267e-07
-4.44052e-08 1.06836e-05 -1.01669e-06
-4.77277e-09 6.05459e-06 -4.81029e-07
2.31178e-05 7.69481e-08 -6.89512e-07
2.70726e-05 4.56314e-08 -4.57731e-07
1.90533e-05 9.27712e-08 -9.29084e-07
-1.52481e-08 6.70958e-06 -5.33951e-07
-3.79143e-08 8.8536e-06 -7.69055e-07
-5.89554e-10 4.01248e-06 -2.85622e-07
1.73986e-05 7.7579e-08 -6.03378e-07
2.16063e-05 5.72169e-08 -4.23785e-07
1.32862e-05 7.96251e-08 -7.43115e-07
-8.06333e-09 4.59027e-06 -3.08231e-07
-2.83147e-08 6.82316e-06 -5.09265e-07
1.57059e-09 1.94677e-06 -1.13425e-07
1.18461e-05 5.09553e-08 -2.42497e-07
4.08831e-06 3.18247e-08 -2.49131e-07
7.78594e-06 4.3826e-08 -2.99298e-07
-2.32125e-09 2.54477e-06 -1.25893e-07
-1.75239e-08 4.76024e-06 -2.70677e-07
1.81094e-10 8.82749e-08 -3.58007e-09
-2.94738e-06 -1.80735e-08 6.44767e-08
-9.00923e-06 -9.04772e-08 5.75314e-07
-6.32067e-06 -4.8757e-08 2.54324e-07
-8.38512e-09 2.90762e-06 -9.61552e-08
-4.47429e-09 -1.26524e-06 2.26891e-08
1.65636e-10 8.46339e-07 -2.24358e-08
-2.632e-05 -3.17131e-07 1.6744e-06
-2.53617e-05 -2.42678e-07 1.00518e-06
-2.33497e-05 -1.67667e-07 4.97451e-07
-4.28828e-08 1.15647e-05 -1.20124e-06
-3.28853e-08 1.30342e-05 -1.33448e-06
-3.94657e-08 1.26524e-05 -1.31218e-06
3.25873e-05 -9.24863e-08 1.29107e-06
3.49562e-05 -1.30339e-07 1.12223e-06
3.6797e-05 -1.66795e-07 9.13385e-07
3.83614e-05 -1.24874e-07 8.95423e-07
-4.40193e-08 1.07466e-05 -1.03222e-06
-2.82255e-08 1.17267e-05 -1.05939e-06
-3.80096e-08 1.16017e-05 -1.0895e-06
3.11522e-05 -1.15858e-07 1.1171e-06
3.41522e-05 -1.60962e-07 1.01512e-06
3.66001e-05 -2.06338e-07 8.68691e-07
3.8774e-05 -1.44584e-07 7.01962e-07
-2.39652e-08 1.0094e-05 -8.59956e-07
-3.57986e-08 1.02383e-05 -9.13102e-07
-4.40146e-08 9.63941e-06 -8.87383e-07
2.60071e-05 -8.33557e-08 8.01806e-07
2.95173e-05 -1.23136e-07 7.85794e-07
3.24975e-05 -1.65646e-07 7.28628e-07
3.5195e-05 -1.72775e-07 5.29596e-07
-1.71988e-08 8.21919e-06 -6.19541e-07
-3.00074e-08 8.61466e-06 -6.88187e-07
-3.99201e-08 8.27891e-06 -6.90336e-07
1.61686e-05 -3.36951e-08 4.67142e-07
1.99428e-05 -5.91345e-08 5.13208e-07
2.32675e-05 -8.90055e-08 5.24206e-07
2.62341e-05 -8.38625e-08 3.02196e-07
-8.89664e-09 6.2476e-06 -3.71178e-07
-2.13624e-08 6.84716e-06 -4.40655e-07
-3.21582e-08 6.75238e-06 -4.62203e-07
7.36328e-07 1.04234e-10 2.02382e-08
4.40859e-06 -3.22373e-09 1.07978e-07
7.77955e-06 -1.24345e-08 1.66549e-07
1.08086e-05 -4.04278e-08 1.19613e-07
-8.77375e-10 4.38916e-06 -1.56406e-07
-1.13602e-08 5.11391e-06 -2.08437e-07
-2.18047e-08 5.2085e-06 -2.3559e-07
-2.10212e-05 -3.49821e-08 -5.73534e-07
-1.796e-05 -1.50018e-08 -4.36392e-07
-1.49758e-05 -3.72859e-11 -3.17066e-07
-1.23258e-05 4.55501e-08 -1.6224e-07
-9.81181e-09 -1.75122e-06 -1.85159e-08
-3.08704e-10 -1.59278e-07 -4.71244e-10
-2.43048e-09 1.58411e-06 -5.69801e-09
-4.95827e-05 -5.03125e-07 1.86402e-06
-4.97357e-05 -3.82068e-07 9.69264e-07
-4.79778e-05 -6.09885e-07 2.93024e-06
-8.09758e-09 -9.58321e-07 -4.39417e-08
-3.115e-10 -7.00094e-08 -2.76329e-09
7.24743e-10 1.17483e-06 3.96169e-08
-7.89556e-05 -8.14916e-07 2.68106e-06
-8.21941e-05 -6.30796e-07 1.29436e-06
-7.38637e-05 -9.60802e-07 4.21994e-06
1.17941e-08 1.55726e-06 1.31656e-07
7.13565e-09 2.11388e-06 1.6972e-07
1.84573e-08 1.55165e-06 1.3795e-07
-0.00012047 -9.85795e-07 2.17804e-06
-0.000103553 -1.44657e-06 6.31416e-06
-0.000113125 -1.24636e-06 4.20979e-06
9.6751e-08 6.21707e-06 8.40711e-07
5.67834e-08 5.18081e-06 6.87804e-07
3.12504e-08 4.86555e-06 6.31265e-07
-0.000136493 -1.93551e-06 8.50724e-06
-0.000151542 -1.70202e-06 5.89241e-06
-0.000164054 -1.36453e-06 3.24749e-06
2.61156e-07 1.34544e-05 2.4822e-06
1.64157e-07 1.12503e-05 2.07489e-06
9.66772e-08 9.89872e-06 1.81264e-06
-0.000193427 -2.13472e-06 7.54168e-06
-0.000212195 -1.73387e-06 4.31228e-06
-0.000171914 -2.39364e-06 1.06092e-05
5.52581e-07 2.36378e-05 5.57784e-06
3.71026e-07 2.01852e-05 4.82565e-06
2.34844e-07 1.76655e-05 4.24289e-06
-0.000208898 -2.74672e-06 1.23306e-05
-0.00023782 -2.4755e-06 8.89418e-06
-0.000263931 -2.02654e-06 5.14422e-06
1.01044e-06 3.7097e-05 1.0676e-05
7.16648e-07 3.23679e-05 9.5474e-06
4.818e-07 2.85905e-05 8.5604e-06
-3.21969e-09 3.66319e-06 -4.06382e-08
-1.2556e-08 3.86376e-06 -6.22917e-08
4.55612e-09 2.92472e-06 -1.64618e-08
-4.95962e-05 -1.31955e-07 -1.38105e-06
-4.78104e-05 -8.77098e-08 -1.17008e-06
-4.57998e-05 -4.57246e-08 -9.55102e-07
-4.40637e-05 1.79413e-07 -6.84311e-07
8.518e-09 2.21443e-06 7.36325e-08
2.55634e-09 2.82399e-06 7.72631e-08
-5.91449e-09 3.01452e-06 6.52344e-08
-8.52153e-05 -2.37596e-07 -2.43216e-06
-8.55179e-05 -1.75552e-07 -2.15763e-06
-8.52235e-05 -1.1013e-07 -1.84439e-06
-8.47637e-05 3.32249e-08 -1.73427e-06
1.7491e-08 2.67537e-06 2.13326e-07
9.27761e-09 2.98887e-06 2.22543e-07
-7.79176e-10 3.02273e-06 2.08584e-07
-0.000127696 -4.09725e-07 -2.76679e-06
-0.000131057 -3.30836e-07 -2.61353e-06
-0.000133389 -2.36418e-07 -2.39517e-06
-0.00013534 9.48939e-08 -2.37724e-06
4.57221e-08 4.76068e-06 6.25095e-07
2.63131e-08 4.59238e-06 5.82273e-07
8.24575e-09 4.29755e-06 5.22892e-07
-0.000176537 -5.64214e-07 -2.70753e-06
-0.000184082 -4.91655e-07 -2.75033e-06
-0.000190128 -3.92469e-07 -2.69123e-06
-0.000195555 2.39159e-07 -2.69199e-06
1.15813e-07 8.9426e-06 1.67315e-06
7.04341e-08 8.09999e-06 1.48937e-06
3.27395e-08 7.28773e-06 1.30884e-06
-0.000231044 -7.17562e-07 -2.3068e-06
-0.000243992 -6.8215e-07 -2.61216e-06
-0.000254962 -6.11887e-07 -2.78127e-06
-0.000265238 3.75351e-07 -3.32242e-06
2.58031e-07 1.56904e-05 3.86102e-06
1.66401e-07 1.39853e-05 3.42734e-06
9.20063e-08 1.24597e-05 3.02202e-06
-0.000290277 -8.34287e-07 -1.91136e-06
-0.000309933 -8.57594e-07 -2.51303e-06
-0.000327158 -8.41352e-07 -2.94913e-06
5.0799e-07 2.54655e-05 7.79021e-06
3.48531e-07 2.27198e-05 7.01103e-06
2.1769e-07 2.02838e-05 6.27338e-06
5.28229e-06 -1.16907e-08 3.58271e-08
5.61228e-06 -1.25412e-08 1.94622e-08
5.94359e-06 -1.32981e-08 4.1452e-09