# vtk DataFile Version 3.0
vtk output
ASCII
DATASET POLYDATA
POINTS 14342 float
0.145209 0.719928 -0.0385853
0.186139 0.719682 -0.0411807
0.186259 0.709703 -0.0405415
0.196626 0.714639 -0.0405118
0.20697 0.719552 -0.0405276
0.268494 0.719289 -0.0402019
0.186396 0.699721 -0.0399132
0.19675 0.704658 -0.0398647
0.207076 0.709579 -0.0398653
0.217374 0.714505 -0.0399278
0.227669 0.719429 -0.0400927
0.248189 0.719352 -0.0401242
0.258356 0.714351 -0.0399471
0.278636 0.714268 -0.0398193
0.298804 0.714195 -0.0398253
0.319046 0.714125 -0.0401272
0.288709 0.719212 -0.0401383
0.308878 0.719145 -0.0402068
0.165937 0.71981 -0.0395888
0.176316 0.714761 -0.0395759
0.227736 0.709455 -0.0394251
0.237995 0.714397 -0.0396601
0.248242 0.709381 -0.039467
0.319068 0.704146 -0.0394498
0.268538 0.709318 -0.039537
0.288739 0.709239 -0.0394674
0.308903 0.709173 -0.0395297
0.166059 0.709827 -0.0389737
0.186518 0.689744 -0.0392558
0.196867 0.694673 -0.0391975
0.207179 0.699597 -0.0391746
0.176424 0.704775 -0.0389457
0.217465 0.704527 -0.0392621
0.238054 0.704418 -0.0390228
0.258408 0.704372 -0.0393111
0.278674 0.70429 -0.0391588
0.298831 0.704218 -0.039156
0.155646 0.71488 -0.03887
0.217545 0.694544 -0.0386206
0.227815 0.699479 -0.038757
0.248305 0.699407 -0.0388305
0.258457 0.694385 -0.0386617
0.319086 0.694164 -0.0387804
0.268581 0.699338 -0.0388861
0.288767 0.69926 -0.0388049
0.308927 0.699194 -0.0388574
0.439841 0.723857 -0.040948
0.459911 0.723853 -0.0408403
0.479976 0.723855 -0.0408174
0.328999 0.719073 -0.0404303
0.379555 0.713963 -0.0403016
0.349204 0.719031 -0.040418
0.369339 0.718966 -0.0404429
0.389592 0.71893 -0.0405713
0.409661 0.718903 -0.0404906
0.429809 0.71888 -0.0405074
0.449867 0.718871 -0.04055
0.469928 0.71887 -0.0404887
0.489986 0.718874 -0.0405117
0.339125 0.714079 -0.0401518
0.389598 0.708962 -0.0398872
0.359294 0.714009 -0.0400643
0.399627 0.713939 -0.0401795
0.449857 0.708905 -0.0398699
0.489966 0.708908 -0.0398385
0.419743 0.713916 -0.0401656
0.439825 0.713896 -0.0402738
0.459882 0.713892 -0.0401706
0.479936 0.713894 -0.0401552
0.499986 0.713901 -0.0402269
0.329069 0.709109 -0.0397904
0.339164 0.7041 -0.03949
0.379574 0.703994 -0.0396246
0.399633 0.703964 -0.0395021
0.349252 0.709064 -0.0397493
0.369369 0.709001 -0.0397625
0.409655 0.70894 -0.039805
0.419747 0.703941 -0.0394962
0.43982 0.703924 -0.0396054
0.459871 0.70392 -0.0395059
0.479919 0.703921 -0.0394952
0.4298 0.708918 -0.0398326
0.469893 0.708908 -0.0398187
0.329118 0.69913 -0.03913
0.349285 0.699079 -0.0390818
0.36939 0.699024 -0.0390937
0.389609 0.698992 -0.0392144
0.409659 0.698965 -0.0391335
0.359334 0.704038 -0.0393944
0.429798 0.698944 -0.0391753
0.449836 0.698935 -0.0392156
0.469879 0.698933 -0.0391647
0.48992 0.698936 -0.0392019
0.339227 0.694121 -0.038842
0.359362 0.694059 -0.0387286
0.379593 0.694021 -0.0389582
0.399639 0.693992 -0.038835
0.419754 0.693968 -0.0388436
0.439806 0.693953 -0.0389532
0.459844 0.693948 -0.0388589
0.479879 0.693948 -0.0388569
0.520024 0.723856 -0.0408187
0.540089 0.723853 -0.0408415
0.560159 0.723857 -0.0409491
0.510014 0.718875 -0.0405128
0.530072 0.71887 -0.0404899
0.550133 0.718871 -0.0405511
0.57019 0.71888 -0.0405084
0.620445 0.713963 -0.040302
0.590339 0.718903 -0.0404913
0.610408 0.71893 -0.0405718
0.630661 0.718966 -0.0404428
0.650796 0.71903 -0.0404179
0.671 0.719074 -0.0404249
0.510034 0.708909 -0.0398396
0.550143 0.708905 -0.0398709
0.520064 0.713894 -0.0401563
0.540117 0.713893 -0.0401717
0.560175 0.713897 -0.0402748
0.580257 0.713916 -0.0401667
0.610402 0.708962 -0.0398875
0.600372 0.713939 -0.04018
0.640706 0.714009 -0.0400641
0.660875 0.71408 -0.0401527
0.500035 0.703929 -0.0395805
0.520081 0.703922 -0.0395026
0.540128 0.70392 -0.0395142
0.560179 0.703924 -0.0396133
0.580252 0.703941 -0.0395063
0.530107 0.708908 -0.0398198
0.5702 0.708918 -0.0398334
0.600367 0.703964 -0.0395022
0.620426 0.703994 -0.0396248
0.660835 0.7041 -0.0394909
0.590345 0.70894 -0.0398054
0.630631 0.709001 -0.0397621
0.650747 0.709063 -0.0397491
0.67093 0.70911 -0.0397844
0.510081 0.698937 -0.0392152
0.530121 0.698933 -0.0391788
0.550164 0.698935 -0.0392293
0.570201 0.698944 -0.0391922
0.590341 0.698965 -0.0391334
0.610391 0.698991 -0.0392146
0.63061 0.699024 -0.0390933
0.650715 0.699078 -0.0390816
0.640666 0.704038 -0.0393941
0.670882 0.699131 -0.0391278
0.500089 0.693955 -0.0389639
0.520122 0.693949 -0.0388743
0.540156 0.693949 -0.0388795
0.560194 0.693953 -0.038972
0.580245 0.693968 -0.0388682
0.600361 0.693991 -0.0388351
0.620407 0.694021 -0.0389586
0.640638 0.694059 -0.0387284
0.660773 0.694122 -0.0388428
0.81386 0.719682 -0.0411809
0.813741 0.709703 -0.0405419
0.803373 0.714639 -0.0405123
0.79303 0.719552 -0.0405281
0.731506 0.719289 -0.0402017
0.680953 0.714126 -0.0401228
0.701196 0.714195 -0.0398223
0.721364 0.714269 -0.0398181
0.691121 0.719145 -0.040203
0.71129 0.719212 -0.0401365
0.741644 0.714352 -0.0399477
0.751811 0.719352 -0.0401255
0.813604 0.699722 -0.0399145
0.80325 0.704658 -0.039866
0.792924 0.709579 -0.0398664
0.782626 0.714505 -0.0399287
0.772331 0.719429 -0.0400934
0.680932 0.704146 -0.0394467
0.691096 0.709173 -0.0395253
0.711261 0.709239 -0.0394652
0.731462 0.709318 -0.0395367
0.751758 0.709381 -0.0394684
0.772264 0.709455 -0.039426
0.762005 0.714397 -0.0396608
0.823684 0.714761 -0.0395772
0.834063 0.71981 -0.0395903
0.701168 0.704218 -0.0391537
0.721326 0.70429 -0.039158
0.741591 0.704372 -0.0393117
0.761945 0.704418 -0.0390236
0.813482 0.689744 -0.0392573
0.803133 0.694674 -0.0391989
0.792821 0.699597 -0.0391759
0.782535 0.704528 -0.0392631
0.823577 0.704776 -0.038947
0.833941 0.709827 -0.0389754
0.680913 0.694165 -0.0387806
0.741543 0.694386 -0.0386626
0.691073 0.699194 -0.0388553
0.711233 0.699261 -0.038804
0.731419 0.699339 -0.0388864
0.751695 0.699407 -0.0388319
0.782455 0.694544 -0.0386218
0.772185 0.699479 -0.038758
0.844354 0.71488 -0.0388711
0.854791 0.719928 -0.0385865
0.145056 0.729913 -0.0391735
0.144244 0.809852 -0.0438669
0.14438 0.799858 -0.0432184
0.133889 0.804938 -0.0426805
0.144496 0.789877 -0.0425913
0.134026 0.794956 -0.0420452
0.123458 0.810022 -0.041841
0.144622 0.779881 -0.0419517
0.134171 0.78496 -0.0414048
0.123624 0.800027 -0.0411746
0.144752 0.769896 -0.0412615
0.144793 0.759892 -0.0407965
0.134331 0.774961 -0.040689
0.12379 0.790044 -0.0404847
0.14485 0.749891 -0.0402974
0.134445 0.764974 -0.0401008
0.123967 0.780045 -0.0397833
0.144946 0.739904 -0.0397485
0.134498 0.75497 -0.0397181
0.134549 0.744978 -0.0393296
0.124137 0.770056 -0.0391273
0.134621 0.734973 -0.0388945
0.124221 0.760053 -0.0387487
0.133724 0.81493 -0.0433391
0.113863 0.815025 -0.0389451
0.144085 0.819843 -0.0445276
0.133554 0.824918 -0.0439926
0.123275 0.820014 -0.0424962
0.143912 0.829828 -0.0451806
0.123082 0.83 -0.0431352
0.133368 0.834899 -0.0446172
0.143734 0.839805 -0.0458088
0.122894 0.839987 -0.0437262
0.133195 0.844876 -0.0452095
0.143584 0.849779 -0.0463971
0.122736 0.849972 -0.0442814
0.133057 0.854852 -0.0457498
0.143477 0.859748 -0.0469301
0.122614 0.859951 -0.0448001
0.132966 0.864831 -0.0462341
0.122535 0.86992 -0.0452885
0.143409 0.869722 -0.0474554
0.132867 0.874792 -0.0467888
0.12242 0.879886 -0.0458517
0.143283 0.879692 -0.0480231
0.132742 0.884756 -0.0473813
0.122281 0.889855 -0.0464317
0.143153 0.889662 -0.0486279
0.132604 0.894731 -0.047974
0.12213 0.899828 -0.0470292
0.143011 0.899636 -0.0492586
0.1127 0.894793 -0.0436464
0.112832 0.884829 -0.0431092
0.112936 0.874867 -0.0425769
0.113038 0.864907 -0.0420132
0.10265 0.899874 -0.0415758
0.113173 0.854925 -0.0414768
0.102792 0.889906 -0.0410384
0.113331 0.844952 -0.0408745
0.102954 0.879939 -0.0404383
0.113525 0.834976 -0.040206
0.103107 0.869973 -0.0398408
0.113739 0.825 -0.0395228
0.103279 0.859996 -0.0392407
0.103404 0.850012 -0.0387312
0.132455 0.904706 -0.0485966
0.112564 0.904751 -0.0441547
0.0928707 0.904936 -0.0388511
0.121939 0.909795 -0.0476458
0.142848 0.909607 -0.0498954
0.102476 0.90983 -0.0421203
0.112409 0.914701 -0.0447168
0.132255 0.914678 -0.0492901
0.0926405 0.914893 -0.0395017
0.102217 0.919777 -0.0427531
0.112236 0.924675 -0.0452435
0.102075 0.929762 -0.0432792
0.112098 0.934658 -0.0457882
0.101947 0.939741 -0.0438281
0.0919192 0.954793 -0.0419238
0.11198 0.944637 -0.0463685
0.101811 0.94971 -0.044413
0.111854 0.954614 -0.0469949
0.101701 0.959683 -0.0449656
0.0920425 0.944827 -0.0413454
0.0921815 0.934843 -0.0407466
0.0924116 0.924869 -0.0401117
0.121642 0.91977 -0.048453
0.142596 0.919567 -0.0506834
0.132024 0.924648 -0.0500172
0.121496 0.929726 -0.0490274
0.142466 0.929524 -0.0513271
0.121365 0.939685 -0.0495808
0.121252 0.949652 -0.0501493
0.121148 0.959626 -0.0507148
0.131793 0.9346 -0.0508338
0.142253 0.939482 -0.0521985
0.131643 0.944561 -0.0515309
0.131533 0.954538 -0.0521581
0.142115 0.949451 -0.0529129
0.14202 0.959427 -0.0535437
0.0918096 0.964773 -0.0424313
0.101599 0.969649 -0.0455273
0.111702 0.964577 -0.0476206
0.0917082 0.974748 -0.0429514
0.111572 0.974548 -0.0482316
0.0916167 0.984734 -0.0435039
0.101482 0.979635 -0.0460861
0.111436 0.98453 -0.0488807
0.101325 0.989605 -0.0467247
0.0822539 0.979986 -0.0396037
0.121033 0.969611 -0.0513011
0.131426 0.964518 -0.0527551
0.141925 0.969413 -0.0541819
0.120901 0.979608 -0.05191
0.120796 0.989605 -0.0524833
0.131286 0.974491 -0.0533961
0.131185 0.984495 -0.0539984
0.14183 0.979415 -0.054793
0.1417 0.989398 -0.0554661
0.0824099 0.970004 -0.0389784
0.0825425 0.960034 -0.0384108
0.082041 0.989937 -0.0403149
0.0914811 0.994697 -0.0440402
0.081924 0.999871 -0.0408608
0.0913622 1.00462 -0.0445678
0.0818296 1.00981 -0.0413425
0.101026 1.00951 -0.0478926
0.0912104 1.01455 -0.0451472
0.0817271 1.01977 -0.041803
0.0816062 1.02972 -0.0423348
0.100946 1.01943 -0.0484494
0.0910776 1.02448 -0.0457472
0.100826 1.02934 -0.0490952
0.101143 0.999554 -0.047331
0.111252 0.994483 -0.0495855
0.131056 0.994485 -0.0546133
0.120545 0.999556 -0.0532772
0.141548 0.999386 -0.0561353
0.111036 1.00442 -0.0504001
0.110926 1.01436 -0.0509869
0.110826 1.0243 -0.0516427
[...]
POINT_DATA 14342
VECTORS alpha float
1.81863e-06 -1.19068e-08 -6.47372e-08
2.01422e-06 -1.41662e-08 8.26048e-08
1.96323e-06 -1.34007e-08 8.19783e-08
-1.41415e-07 1.8508e-05 -1.23734e-06
2.09171e-06 -1.32703e-08 6.7809e-08
2.28616e-06 -9.50583e-09 1.79113e-08
1.91551e-06 -1.2714e-08 8.38504e-08
-1.36754e-07 1.8554e-05 -1.25502e-06
2.03895e-06 -1.26289e-08 6.91323e-08
-8.52596e-08 1.7381e-05 -1.19365e-06
2.16634e-06 -1.20334e-08 4.15563e-08
2.23025e-06 -1.03498e-08 1.68584e-08
-4.73144e-08 1.38285e-05 -9.62179e-07
-2.1164e-08 1.20468e-05 -8.33511e-07
-5.30602e-09 1.04684e-05 -7.2011e-07
-1.25903e-08 9.11067e-06 -6.50506e-07
2.34118e-06 -8.05789e-09 5.02372e-09
2.39584e-06 -6.93476e-09 -1.57785e-09
1.90566e-06 -1.27605e-08 -6.59274e-09
-1.58591e-07 1.86779e-05 -1.23526e-06
2.11195e-06 -1.1475e-08 4.10082e-08
-3.91359e-08 1.56918e-05 -1.06154e-06
2.17382e-06 -9.82407e-09 1.83405e-08
-1.11661e-08 9.13852e-06 -6.48537e-07
2.22803e-06 -9.0477e-09 1.86293e-08
2.28269e-06 -7.68873e-09 5.8246e-09
2.33623e-06 -6.62302e-09 -5.81035e-10
1.85848e-06 -1.21381e-08 -5.48564e-09
1.86844e-06 -1.20998e-08 8.20907e-08
-1.26712e-07 1.85982e-05 -1.28377e-06
1.99002e-06 -1.20682e-08 6.71519e-08
-1.51824e-07 1.87262e-05 -1.24481e-06
-7.61205e-08 1.74238e-05 -1.19031e-06
-3.65003e-08 1.57332e-05 -1.05752e-06
-4.04644e-08 1.38657e-05 -9.62028e-07
-1.41247e-08 1.20802e-05 -8.33385e-07
-3.70937e-10 1.04982e-05 -7.1964e-07
-1.70644e-07 1.77092e-05 -1.16459e-06
-7.03038e-08 1.74661e-05 -1.18727e-06
2.06134e-06 -1.1112e-08 3.99855e-08
2.12101e-06 -9.41609e-09 2.03794e-08
-3.55294e-08 1.3902e-05 -9.62018e-07
-5.20646e-09 9.16369e-06 -6.51227e-07
2.17403e-06 -8.67896e-09 1.96788e-08
2.22769e-06 -7.5038e-09 7.17456e-09
2.28011e-06 -6.50527e-09 5.69944e-10
-5.24927e-11 2.92389e-06 -2.12028e-07
-5.80108e-11 1.94901e-06 -1.41227e-07
-4.45636e-11 9.7422e-07 -7.06221e-08
2.45442e-06 -6.58833e-09 9.17073e-09
-3.35685e-09 5.86731e-06 -4.20305e-07
2.4887e-06 -5.25893e-09 5.0564e-09
2.52414e-06 -4.28249e-09 8.82831e-10
2.56657e-06 -3.85443e-09 1.53632e-08
2.59588e-06 -3.12203e-09 5.66362e-09
2.61912e-06 -7.64434e-10 4.56227e-09
2.63877e-06 -5.45888e-10 1.37607e-08
2.65052e-06 2.1118e-10 2.55773e-09
2.65646e-06 9.67928e-10 -8.697e-09
2.62663e-09 7.93397e-06 -5.68199e-07
2.50127e-06 -3.68322e-09 1.49839e-08
7.49853e-09 6.87233e-06 -4.93733e-07
-1.74413e-09 4.88524e-06 -3.51824e-07
2.57129e-06 -4.8114e-10 1.30722e-08
2.58851e-06 9.12024e-10 -9.01457e-09
4.05977e-10 3.90956e-06 -2.82778e-07
2.08882e-10 2.93312e-06 -2.13144e-07
1.28166e-10 1.95518e-06 -1.41976e-07
5.48624e-11 9.77309e-07 -7.09955e-08
-2.83175e-15 1.99685e-12 -1.45296e-13
2.39076e-06 -6.04153e-09 1.1379e-08
2.28333e-09 7.95881e-06 -5.68251e-07
-3.47078e-09 5.88523e-06 -4.22025e-07
-2.18157e-09 4.90097e-06 -3.51955e-07
2.42449e-06 -4.9453e-09 6.83714e-09
2.45915e-06 -4.05304e-09 1.98543e-09
2.5289e-06 -3.08052e-09 5.30386e-09
6.9667e-10 3.92212e-06 -2.8301e-07
1.47386e-10 2.9425e-06 -2.13087e-07
1.53833e-10 1.96145e-06 -1.41924e-07
1.01236e-10 9.80453e-07 -7.09558e-08
2.5513e-06 -7.10833e-10 4.87941e-09
2.58184e-06 1.37948e-10 1.55671e-09
2.33205e-06 -5.66048e-09 1.22342e-08
2.36492e-06 -4.75834e-09 7.64926e-09
2.39869e-06 -3.84674e-09 2.62932e-09
2.43861e-06 -3.59042e-09 1.49756e-08
2.46634e-06 -2.9667e-09 5.06174e-09
7.50572e-09 6.89307e-06 -4.95946e-07
2.48784e-06 -7.66461e-10 5.0943e-09
2.50629e-06 -5.58434e-10 1.20251e-08
2.51743e-06 6.22537e-11 8.75032e-10
2.52313e-06 6.84657e-10 -1.02942e-08
3.55398e-09 7.98128e-06 -5.71174e-07
7.52609e-09 6.9136e-06 -4.9569e-07
-2.99229e-09 5.90212e-06 -4.24188e-07
-1.57206e-09 4.91516e-06 -3.5397e-07
1.34785e-09 3.93345e-06 -2.84271e-07
4.04326e-10 2.95098e-06 -2.13893e-07
4.12851e-10 1.96712e-06 -1.4244e-07
2.74828e-10 9.83292e-07 -7.12035e-08
-4.46997e-11 -9.74213e-07 7.06329e-08
-6.00649e-11 -1.94899e-06 1.4125e-07
-5.82001e-11 -2.92386e-06 2.12069e-07
2.65644e-06 -9.98369e-10 8.68912e-09
2.65051e-06 -2.36912e-10 -2.55319e-09
2.63878e-06 5.24826e-10 -1.37473e-08
2.61913e-06 7.4724e-10 -4.52951e-09
-3.35151e-09 -5.86728e-06 4.2042e-07
2.59592e-06 3.06432e-09 -5.63656e-09
2.56661e-06 3.80808e-09 -1.53386e-08
2.52417e-06 4.24685e-09 -8.86204e-10
2.48873e-06 5.23332e-09 -5.06278e-09
2.45452e-06 6.5941e-09 -9.50851e-09
2.58849e-06 -9.39935e-10 9.00754e-09
2.57129e-06 4.62395e-10 -1.30568e-08
5.16034e-11 -9.77301e-07 7.10043e-08
1.1983e-10 -1.95516e-06 1.41996e-07
1.93694e-10 -2.9331e-06 2.13181e-07
3.79548e-10 -3.90952e-06 2.82822e-07
2.50129e-06 3.62907e-09 -1.49695e-08
-1.74681e-09 -4.88518e-06 3.51958e-07
7.50208e-09 -6.87235e-06 4.93876e-07
2.645e-09 -7.93395e-06 5.68229e-07
-3.18013e-16 2.57432e-12 -1.86732e-13
1.05133e-10 -9.80426e-07 7.10315e-08
1.71791e-10 -1.9614e-06 1.42084e-07
1.98922e-10 -2.94243e-06 2.13348e-07
7.78961e-10 -3.92202e-06 2.83373e-07
2.58183e-06 -1.61264e-10 -1.55078e-09
2.5513e-06 6.9582e-10 -4.84376e-09
-2.19022e-09 -4.90093e-06 3.52013e-07
-3.47023e-09 -5.88519e-06 4.22082e-07
2.30291e-09 -7.95871e-06 5.6829e-07
2.52893e-06 3.01524e-09 -5.2869e-09
2.45917e-06 4.0097e-09 -2.00251e-09
2.42451e-06 4.91174e-09 -6.85831e-09
2.39084e-06 6.04903e-09 -1.1735e-08
2.52302e-06 -7.58373e-10 1.0348e-08
2.51733e-06 -1.22802e-10 -1.14072e-09
2.50617e-06 4.82111e-10 -1.22361e-08
2.48777e-06 6.96947e-10 -5.65172e-09
2.46634e-06 2.9184e-09 -5.11457e-09
2.43859e-06 3.54963e-09 -1.50014e-08
2.39867e-06 3.81359e-09 -2.66079e-09
2.3649e-06 4.73144e-09 -7.65702e-09
7.50813e-09 -6.89306e-06 4.96062e-07
2.33206e-06 5.66332e-09 -1.24011e-08
-4.8851e-16 1.56223e-12 -1.13589e-13
2.6235e-10 -9.8326e-07 7.14107e-08
4.28691e-10 -1.96704e-06 1.42847e-07
5.59181e-10 -2.95088e-06 2.14649e-07
1.60895e-09 -3.93331e-06 2.85361e-07
-1.57934e-09 -4.91513e-06 3.53984e-07
-3.00024e-09 -5.90208e-06 4.24212e-07
7.50723e-09 -6.91357e-06 4.95781e-07
3.53558e-09 -7.98114e-06 5.71206e-07
2.01424e-06 1.41762e-08 -8.26034e-08
1.96324e-06 1.34111e-08 -8.19805e-08
-1.41444e-07 -1.85078e-05 1.23707e-06
2.09173e-06 1.3259e-08 -6.7796e-08
2.28622e-06 9.4887e-09 -1.80343e-08
-1.2674e-08 -9.11056e-06 6.50944e-07
-5.384e-09 -1.04682e-05 7.20587e-07
-2.11912e-08 -1.20466e-05 8.3379e-07
2.39593e-06 6.93195e-09 1.30657e-09
2.34125e-06 8.04599e-09 -5.20754e-09
-4.72897e-08 -1.38282e-05 9.62181e-07
2.23031e-06 1.03418e-08 -1.68575e-08
1.91552e-06 1.2725e-08 -8.38833e-08
-1.36758e-07 -1.85538e-05 1.25477e-06
2.039e-06 1.26182e-08 -6.91543e-08
-8.52298e-08 -1.73808e-05 1.19342e-06
2.16642e-06 1.20242e-08 -4.15794e-08
-1.12258e-08 -9.1384e-06 6.48804e-07
2.3363e-06 6.62223e-09 2.88123e-10
2.28275e-06 7.67912e-09 -6.0291e-09
2.22808e-06 9.03317e-09 -1.87727e-08
2.17386e-06 9.81604e-09 -1.83395e-08
2.11201e-06 1.14658e-08 -4.10302e-08
-3.90713e-08 -1.56916e-05 1.06132e-06
-1.58642e-07 -1.86777e-05 1.23498e-06
1.90568e-06 1.27679e-08 6.56245e-09
-4.3894e-10 -1.04981e-05 7.2e-07
-1.41593e-08 -1.208e-05 8.3361e-07
-4.045e-08 -1.38654e-05 9.62067e-07
-3.64288e-08 -1.5733e-05 1.05729e-06
1.86845e-06 1.21109e-08 -8.2123e-08
-1.26709e-07 -1.8598e-05 1.28352e-06
1.99003e-06 1.20575e-08 -6.71724e-08
-7.6083e-08 -1.74236e-05 1.19007e-06
-1.51866e-07 -1.87259e-05 1.24453e-06
1.85849e-06 1.21458e-08 5.457e-09
-5.21506e-09 -9.16356e-06 6.51124e-07
-3.55632e-08 -1.39018e-05 9.62084e-07
2.28012e-06 6.50178e-09 -7.27584e-10
2.22769e-06 7.49357e-09 -7.28518e-09
2.17403e-06 8.6662e-09 -1.9762e-08
2.121e-06 9.40795e-09 -2.03787e-08
-7.02584e-08 -1.74659e-05 1.18703e-06
2.06136e-06 1.11027e-08 -4.00066e-08
-1.70275e-07 -1.7709e-05 1.16431e-06
1.8187e-06 1.19146e-08 6.47206e-08
1.86158e-06 -1.2255e-08 -6.94423e-08
2.28834e-06 -1.65161e-08 -1.34884e-07
2.22443e-06 -1.59483e-08 -1.30589e-07
-1.63009e-07 1.5483e-05 -1.01108e-06
2.16635e-06 -1.55216e-08 -1.26453e-07
-1.51736e-07 1.55348e-05 -9.93525e-07
2.15058e-06 -1.47729e-08 -2.47597e-07
2.08269e-06 -1.47543e-08 -1.20538e-07
-1.55552e-07 1.55868e-05 -1.00295e-06
2.09158e-06 -1.43002e-08 -2.39819e-07
2.035e-06 -1.43575e-08 -1.18009e-07
1.99219e-06 -1.37189e-08 -1.03072e-07
-1.64481e-07 1.56367e-05 -1.00941e-06
2.03478e-06 -1.39057e-08 -2.33431e-07
1.94783e-06 -1.31613e-08 -8.86186e-08
-1.78558e-07 1.56833e-05 -1.01475e-06
1.95468e-06 -1.32232e-08 -2.2454e-07
1.90496e-06 -1.27472e-08 -7.58118e-08
-1.86325e-07 1.573e-05 -1.04272e-06
-1.854e-07 1.5775e-05 -1.05977e-06
1.91001e-06 -1.28947e-08 -2.17808e-07
-1.92726e-07 1.58194e-05 -1.09316e-06
1.87232e-06 -1.23932e-08 -1.97606e-07
-1.77367e-07 1.54286e-05 -1.02864e-06
-1.6221e-07 1.39028e-05 -8.69072e-07
2.33762e-06 -1.70054e-08 -1.38678e-07
-1.95745e-07 1.53732e-05 -1.03288e-06
2.19657e-06 -1.52096e-08 -2.54257e-07
2.4047e-06 -1.7585e-08 -1.45062e-07
2.25894e-06 -1.57344e-08 -2.63447e-07
-1.75952e-07 1.53156e-05 -1.01663e-06
2.47341e-06 -1.82704e-08 -1.53549e-07
2.32244e-06 -1.65004e-08 -2.75266e-07
-1.4561e-07 1.52565e-05 -9.76865e-07
2.54219e-06 -1.88651e-08 -1.62857e-07
2.38523e-06 -1.71386e-08 -2.87828e-07
-1.21461e-07 1.51942e-05 -9.52224e-07
2.59672e-06 -1.92856e-08 -1.69246e-07
2.43667e-06 -1.76911e-08 -2.97957e-07
-1.00403e-07 1.51313e-05 -9.27039e-07
2.48998e-06 -1.79387e-08 -3.10826e-07
2.6546e-06 -1.96051e-08 -1.78132e-07
-1.12462e-07 1.50728e-05 -9.29906e-07
2.54806e-06 -1.80348e-08 -3.23645e-07
2.71901e-06 -2.00278e-08 -1.87303e-07
-1.36684e-07 1.50146e-05 -9.5111e-07
2.60328e-06 -1.82233e-08 -3.36253e-07
2.77876e-06 -2.05376e-08 -1.94693e-07
-1.57967e-07 1.49518e-05 -9.83212e-07
2.65982e-06 -1.85061e-08 -3.4955e-07
2.83934e-06 -2.12584e-08 -2.02365e-07
-1.58977e-07 1.34546e-05 -8.34497e-07
-1.41912e-07 1.35118e-05 -8.23832e-07
-1.19609e-07 1.3568e-05 -8.09505e-07
-1.06196e-07 1.36244e-05 -8.01688e-07
2.43704e-06 -1.57884e-08 -5.63271e-07
-9.46776e-08 1.36812e-05 -8.0876e-07
2.38435e-06 -1.51896e-08 -5.45287e-07
-1.05199e-07 1.37388e-05 -8.38186e-07
2.33238e-06 -1.48289e-08 -5.2727e-07
-1.2744e-07 1.37955e-05 -8.70899e-07
2.27577e-06 -1.44552e-08 -5.10518e-07
-1.51457e-07 1.38504e-05 -8.80341e-07
2.2233e-06 -1.40891e-08 -4.95385e-07
2.17727e-06 -1.36041e-08 -4.77633e-07
-1.79222e-07 1.48863e-05 -1.0228e-06
-1.6451e-07 1.33944e-05 -8.50915e-07
-1.32894e-07 1.41457e-05 -8.51123e-07
2.80309e-06 -1.95086e-08 -3.71916e-07
2.9964e-06 -2.24628e-08 -2.15694e-07
2.56174e-06 -1.68542e-08 -5.97191e-07
-1.61592e-07 1.33287e-05 -8.56085e-07
-1.79233e-07 1.48116e-05 -1.06461e-06
-1.13721e-07 1.40757e-05 -8.42374e-07
2.63028e-06 -1.74649e-08 -6.13729e-07
-1.23098e-07 1.32606e-05 -8.37072e-07
2.69546e-06 -1.75764e-08 -6.37163e-07
-8.09173e-08 1.31877e-05 -8.09142e-07
2.7634e-06 -1.756e-08 -6.5699e-07
-7.10997e-08 1.37883e-05 -8.24648e-07
-6.71433e-08 1.31131e-05 -7.98936e-07
2.83676e-06 -1.74177e-08 -6.79353e-07
-8.3189e-08 1.30385e-05 -8.15979e-07
2.91051e-06 -1.75558e-08 -7.04341e-07
-6.44738e-08 1.38632e-05 -7.92344e-07
-6.03807e-08 1.39365e-05 -7.80793e-07
-7.53352e-08 1.40057e-05 -8.16566e-07
2.88316e-06 -1.99925e-08 -3.75162e-07
3.08105e-06 -2.30855e-08 -2.15966e-07
-1.48898e-07 1.47417e-05 -1.07021e-06
2.9567e-06 -1.9931e-08 -3.91595e-07
3.16008e-06 -2.32154e-08 -2.26834e-07
3.03371e-06 -1.95134e-08 -4.00941e-07
3.11529e-06 -1.90832e-08 -4.16153e-07
3.19677e-06 -1.87299e-08 -4.3321e-07
-1.20311e-07 1.46728e-05 -1.06446e-06
3.25177e-06 -2.27209e-08 -2.11795e-07
-1.14884e-07 1.46033e-05 -1.0586e-06
-1.24867e-07 1.45335e-05 -1.06868e-06
3.34228e-06 -2.23144e-08 -2.14592e-07
3.42927e-06 -2.20032e-08 -2.25133e-07
-6.87911e-08 1.37121e-05 -8.39116e-07
2.99057e-06 -1.76427e-08 -7.32497e-07
-8.75567e-08 1.2963e-05 -8.24952e-07
-6.522e-08 1.36352e-05 -8.42626e-07
-8.46197e-08 1.28863e-05 -8.32702e-07
-7.06406e-08 1.35583e-05 -8.38657e-07
3.07799e-06 -1.83518e-08 -7.60706e-07
-8.3294e-08 1.28089e-05 -8.32561e-07
3.17689e-06 -1.8294e-08 -7.89297e-07
2.78203e-06 -1.63504e-08 -1.00386e-06
3.28641e-06 -1.862e-08 -4.51098e-07
-1.40932e-07 1.44626e-05 -1.08594e-06
3.5249e-06 -2.19431e-08 -2.36559e-07
3.38358e-06 -1.81431e-08 -4.7005e-07
3.49138e-06 -1.71825e-08 -4.90846e-07
-1.47735e-07 1.43895e-05 -1.0965e-06
-1.43345e-07 1.43188e-05 -1.07708e-06
3.62708e-06 -2.14682e-08 -2.50446e-07
3.74302e-06 -2.08034e-08 -2.63337e-07
2.70145e-06 -1.63879e-08 -9.70742e-07
2.62704e-06 -1.59324e-08 -9.37466e-07
2.87046e-06 -1.5568e-08 -1.03674e-06
-7.11768e-08 1.34747e-05 -8.62699e-07
2.95413e-06 -1.45927e-08 -1.07777e-06
-3.69941e-08 1.33919e-05 -8.32741e-07
3.04894e-06 -1.40928e-08 -1.12304e-06
3.39383e-06 -1.49737e-08 -8.5028e-07
-9.19909e-09 1.3305e-05 -7.8982e-07
3.14406e-06 -1.32384e-08 -1.17266e-06
3.25099e-06 -1.28183e-08 -1.2303e-06
3.50724e-06 -1.22798e-08 -8.93681e-07
-4.39584e-09 1.3215e-05 -7.67535e-07
3.63628e-06 -9.26443e-09 -9.42059e-07
3.28087e-06 -1.69506e-08 -8.13548e-07
-9.81567e-08 1.273e-05 -8.75102e-07
-1.49451e-07 1.42459e-05 -1.08838e-06
3.61664e-06 -1.51268e-08 -4.92331e-07
3.87091e-06 -1.83673e-08 -2.61413e-07
-1.09064e-07 1.26538e-05 -9.02363e-07
-7.26201e-08 1.25721e-05 -8.63397e-07
-7.1438e-08 1.24876e-05 -8.60411e-07
-1.34393e-07 1.41625e-05 -1.10497e-06
3.7665e-06 -1.36884e-08 -4.87183e-07
4.02375e-06 -1.73404e-08 -2.59569e-07
3.91797e-06 -1.20136e-08 -4.93587e-07
4.07881e-06 -1.12282e-08 -5.20367e-07
-1.1472e-07 1.40759e-05 -1.11253e-06
4.1861e-06 -1.60581e-08 -2.6149e-07
-1.14574e-07 1.39817e-05 -1.1293e-06
4.36569e-06 -1.53005e-08 -2.81879e-07
-1.22024e-08 1.31063e-05 -8.26188e-07
3.39839e-06 -1.22981e-08 -1.30072e-06
3.81369e-06 -8.31541e-09 -1.00755e-06
-3.04364e-08 1.299e-05 -8.59571e-07
-1.29932e-07 1.89099e-05 -1.11124e-06
-1.31678e-07 1.84973e-05 -1.16584e-06
-1.12163e-07 1.86388e-05 -1.13756e-06
-1.14871e-07 1.87772e-05 -1.11851e-06
3.52621e-06 -1.01289e-08 -1.35135e-06
3.96568e-06 -5.8476e-09 -1.05738e-06
-2.05084e-08 1.28716e-05 -8.524e-07
3.63148e-06 -5.69835e-09 -1.39612e-06
3.72896e-06 -1.5499e-09 -1.45233e-06
4.09412e-06 -2.42964e-09 -1.09248e-06
-2.44894e-08 1.27508e-05 -8.5539e-07
-4.93011e-08 1.26265e-05 -8.7736e-07
4.21518e-06 1.15897e-09 -1.14232e-06
-1.78147e-07 1.9039e-05 -1.14259e-06
-6.88559e-08 1.23982e-05 -8.51985e-07
-8.91085e-08 1.38807e-05 -1.11584e-06
4.30277e-06 -1.1264e-08 -5.56246e-07
4.62094e-06 -1.58838e-08 -3.02667e-07
-5.68033e-08 1.22917e-05 -8.40158e-07
-6.2887e-08 1.37685e-05 -1.09979e-06
-3.50977e-08 1.21693e-05 -8.43286e-07
-2.77594e-08 1.20461e-05 -8.54892e-07
-3.94598e-08 1.19148e-05 -8.84602e-07
4.48232e-06 -8.66156e-09 -6.01869e-07
4.8331e-06 -1.43351e-08 -3.29352e-07
4.62659e-06 -5.12144e-09 -6.39593e-07
4.78573e-06 -2.34197e-09 -6.69004e-07
-3.8871e-08 1.36584e-05 -1.06494e-06
4.99869e-06 -9.4203e-09 -3.56206e-07
-3.59376e-08 1.35431e-05 -1.05211e-06
-4.68089e-08 1.34085e-05 -1.07115e-06
5.18108e-06 -5.6766e-09 -3.80279e-07
-1.52442e-07 1.86294e-05 -1.23023e-06
-1.64287e-07 1.76624e-05 -1.15513e-06
2.0668e-06 -1.47092e-08 8.74612e-08
1.95678e-06 -1.31992e-08 -4.35729e-09
-1.37476e-07 1.85769e-05 -1.25034e-06
-1.5449e-07 1.76139e-05 -1.17886e-06
2.11703e-06 -1.52924e-08 9.43176e-08
2.007e-06 -1.36498e-08 1.19244e-09
-1.34319e-07 1.75649e-05 -1.17576e-06
-1.1395e-07 1.85269e-05 -1.2144e-06
-1.06022e-07 1.75165e-05 -1.1533e-06
-7.46646e-08 1.74631e-05 -1.1244e-06
2.16833e-06 -1.57975e-08 1.03244e-07
2.05826e-06 -1.40659e-08 2.24925e-09
-9.53081e-08 1.84742e-05 -1.20195e-06
2.22404e-06 -1.6469e-08 1.13255e-07
2.1136e-06 -1.46245e-08 8.4388e-09
-8.17162e-08 1.84217e-05 -1.1895e-06
-1.31925e-07 1.84592e-05 -1.24025e-06
-8.15604e-08 1.73361e-05 -1.19129e-06
2.1451e-06 -1.37881e-08 7.34942e-08
2.22076e-06 -1.22608e-08 4.41492e-08
-1.19672e-07 1.84094e-05 -1.24102e-06
-7.16061e-08 1.72887e-05 -1.18029e-06
2.19501e-06 -1.42522e-08 7.67263e-08
2.26951e-06 -1.24202e-08 4.7344e-08
-1.05663e-07 1.83605e-05 -1.24197e-06
-9.38614e-08 1.83105e-05 -1.24265e-06
-8.35576e-08 1.82577e-05 -1.23286e-06
-5.63698e-08 1.72405e-05 -1.17043e-06
2.24737e-06 -1.46738e-08 8.12799e-08
2.32175e-06 -1.25834e-08 5.07547e-08
-4.05024e-08 1.71926e-05 -1.15934e-06
2.30362e-06 -1.52365e-08 8.84039e-08
2.37802e-06 -1.3093e-08 5.58336e-08
-2.9623e-08 1.71423e-05 -1.14907e-06
2.16197e-06 -1.50284e-08 1.09673e-08
2.27848e-06 -1.71517e-08 1.23895e-07
-5.72012e-08 1.7412e-05 -1.11886e-06
-7.16826e-08 1.83687e-05 -1.19693e-06
2.21202e-06 -1.54418e-08 1.17663e-08
2.33424e-06 -1.75944e-08 1.36336e-07
-1.08567e-07 1.72509e-05 -1.13873e-06
-8.31577e-08 1.73049e-05 -1.10979e-06
-6.43528e-08 1.73588e-05 -1.11327e-06
-7.16312e-08 1.83156e-05 -1.20976e-06
2.30201e-06 -1.62334e-08 1.29548e-08
2.43212e-06 -1.85654e-08 1.47675e-07
-6.24401e-08 1.82572e-05 -1.19002e-06
2.36388e-06 -1.67112e-08 1.2602e-08
2.49919e-06 -1.93976e-08 1.54168e-07
-6.57714e-08 1.82012e-05 -1.20171e-06
2.43274e-06 -1.73419e-08 1.25964e-08
2.57365e-06 -2.02274e-08 1.61831e-07
2.35604e-06 -1.57998e-08 9.5393e-08
2.4325e-06 -1.35403e-08 6.05824e-08
-7.02992e-08 1.82039e-05 -1.21701e-06
-1.98642e-08 1.70912e-05 -1.14711e-06
2.41064e-06 -1.63371e-08 1.03448e-07
2.48774e-06 -1.39499e-08 6.34184e-08
-6.91146e-08 1.81493e-05 -1.21303e-06
-7.4287e-08 1.80941e-05 -1.20865e-06
-8.1072e-08 1.80389e-05 -1.21309e-06
-2.04225e-08 1.7039e-05 -1.14803e-06
2.51098e-06 -1.74087e-08 1.0905e-07
2.59004e-06 -1.48273e-08 6.66456e-08
-2.49908e-08 1.69844e-05 -1.14593e-06
2.58048e-06 -1.81093e-08 1.10784e-07
2.66144e-06 -1.53566e-08 6.7479e-08
-2.95397e-08 1.69318e-05 -1.13788e-06
2.65857e-06 -1.89608e-08 1.14063e-07
2.74135e-06 -1.60407e-08 6.86444e-08
-4.55205e-08 1.37901e-05 -9.60609e-07
-3.66336e-08 1.56502e-05 -1.05807e-06
2.289e-06 -1.06957e-08 1.72681e-08
2.3441e-06 -9.85402e-09 2.0629e-08
-1.4562e-08 1.55624e-05 -1.06174e-06
-2.42663e-09 1.55181e-05 -1.05655e-06
8.11083e-09 1.54705e-05 -1.05288e-06
-3.27536e-08 1.56067e-05 -1.06297e-06
-3.56471e-08 1.37488e-05 -9.68103e-07
2.34132e-06 -1.09761e-08 1.74075e-08
2.39505e-06 -1.00668e-08 2.27803e-08
-3.09834e-08 1.3711e-05 -9.69908e-07
2.39587e-06 -1.11658e-08 2.04353e-08
2.45081e-06 -1.0312e-08 2.57585e-08
-1.92057e-08 1.36693e-05 -9.75349e-07
2.45366e-06 -1.13531e-08 2.228e-08
2.51091e-06 -1.06666e-08 2.88865e-08
-1.27316e-08 1.36263e-05 -9.80439e-07
-1.31565e-08 9.0831e-06 -6.51997e-07
-1.61344e-08 1.20106e-05 -8.35861e-07
-4.66238e-10 1.0436e-05 -7.22974e-07
-1.21794e-08 1.19748e-05 -8.40195e-07
-4.26235e-09 1.19389e-05 -8.42979e-07
-5.14508e-10 1.1903e-05 -8.42535e-07
3.67291e-09 1.18642e-05 -8.43133e-07
2.40039e-06 -8.10706e-09 7.36565e-09
2.45548e-06 -6.90647e-09 6.30715e-10
-9.93434e-09 9.05446e-06 -6.55211e-07
3.69274e-09 1.04039e-05 -7.28349e-07
2.45058e-06 -8.15822e-09 1.02618e-08
2.50467e-06 -6.72753e-09 3.10702e-09
-4.61059e-09 9.02541e-06 -6.60979e-07
1.09254e-08 1.03713e-05 -7.35658e-07
2.50691e-06 -8.18259e-09 1.38872e-08
2.5616e-06 -6.64742e-09 5.53403e-09
-6.94603e-10 8.99616e-06 -6.62506e-07
1.44007e-08 1.0339e-05 -7.41012e-07
2.5674e-06 -8.29222e-09 1.70256e-08
2.6221e-06 -6.40381e-09 7.35286e-09
3.56677e-09 8.96525e-06 -6.64472e-07
1.82472e-08 1.03041e-05 -7.4763e-07
2.508e-06 -1.14998e-08 2.69513e-08
2.56871e-06 -1.10279e-08 3.21722e-08
1.68778e-08 1.54228e-05 -1.05069e-06
1.76254e-08 1.53748e-05 -1.05003e-06
1.27178e-08 1.53256e-05 -1.04826e-06
8.50061e-09 1.52745e-05 -1.0494e-06
-5.86286e-09 1.35838e-05 -9.84587e-07
8.97803e-09 1.18259e-05 -8.48698e-07
2.56284e-06 -1.16001e-08 2.93359e-08
2.626e-06 -1.13138e-08 3.53487e-08
-4.6048e-09 1.35392e-05 -9.85976e-07
1.02186e-08 1.17844e-05 -8.54892e-07
2.66694e-06 -1.20946e-08 3.22675e-08
2.7326e-06 -1.20457e-08 3.73392e-08
-5.21889e-09 1.34937e-05 -9.87749e-07
8.84888e-09 1.17433e-05 -8.5933e-07
2.74029e-06 -1.24154e-08 3.09593e-08
2.80677e-06 -1.24543e-08 3.80559e-08
2.82172e-06 -1.28826e-08 3.21906e-08
-4.94224e-09 1.34474e-05 -9.90232e-07
8.3211e-09 1.17026e-05 -8.62255e-07
2.88871e-06 -1.28951e-08 3.92542e-08
2.62567e-06 -8.47475e-09 1.98702e-08
2.68072e-06 -6.2268e-09 1.00886e-08
2.25018e-08 1.02696e-05 -7.48331e-07
8.42586e-09 8.93308e-06 -6.66413e-07
2.68293e-06 -8.72659e-09 2.22874e-08
2.73813e-06 -6.0914e-09 1.3085e-08
9.20681e-09 8.90077e-06 -6.65173e-07
2.33516e-08 1.02326e-05 -7.51296e-07
2.79164e-06 -9.12529e-09 2.48788e-08
2.84772e-06 -6.22369e-09 1.45025e-08
8.29171e-09 8.86789e-06 -6.62061e-07
2.1607e-08 1.01959e-05 -7.48433e-07