# vtk DataFile Version 3.0
vtk output
ASCII
DATASET POLYDATA
POINTS 6868 float
0.189495 0.339671 -0.0192328
0.199563 0.344627 -0.0192807
0.209641 0.339595 -0.0187478
0.2197 0.344545 -0.0189021
0.259901 0.344638 -0.0187834
0.319978 0.34449 -0.0187832
0.339953 0.344459 -0.018701
0.380095 0.344487 -0.0187418
0.440064 0.344415 -0.0186519
0.159416 0.344748 -0.0184084
0.179566 0.344663 -0.0184664
0.189514 0.329683 -0.0187003
0.199581 0.334633 -0.0187173
0.229767 0.339514 -0.0184616
0.239821 0.344459 -0.0187273
0.249901 0.33958 -0.0184881
0.2799 0.344576 -0.0186688
0.299862 0.344525 -0.0186214
0.329965 0.33948 -0.0184269
0.359902 0.344407 -0.0187165
0.400066 0.344442 -0.0186896
0.42004 0.344418 -0.0186375
0.460032 0.344385 -0.0186634
0.48001 0.34438 -0.0186653
0.169506 0.339714 -0.0181565
0.13928 0.344822 -0.0180891
0.209657 0.329605 -0.0181737
0.219716 0.334551 -0.0183073
0.259908 0.33467 -0.0181816
0.269908 0.339613 -0.018414
0.289882 0.33956 -0.0183203
0.309824 0.33951 -0.0183203
0.319974 0.33451 -0.018197
0.349923 0.339429 -0.0184113
0.369862 0.339397 -0.0184205
0.380084 0.3345 -0.0181696
0.390072 0.339459 -0.0184343
0.410043 0.339432 -0.0183648
0.430016 0.339408 -0.0183394
0.440042 0.334422 -0.0181129
0.450031 0.33939 -0.0183994
0.470007 0.339384 -0.0183803
0.489985 0.33938 -0.0184098
0.810505 0.339672 -0.0192325
0.800437 0.344628 -0.0192807
0.49999 0.344404 -0.0186462
0.559936 0.344414 -0.0186611
0.619906 0.344486 -0.0187485
0.660047 0.344459 -0.0187009
0.680022 0.34449 -0.0187833
0.740099 0.344638 -0.0187834
0.790359 0.339595 -0.0187476
0.7803 0.344545 -0.0189021
0.509998 0.339404 -0.018347
0.51999 0.34438 -0.0186723
0.539969 0.344384 -0.0186709
0.609925 0.339476 -0.0183968
0.579961 0.344417 -0.0186439
0.599935 0.344442 -0.0186959
0.670035 0.33948 -0.0184272
0.640098 0.344407 -0.0187165
0.700138 0.344525 -0.0186213
0.7201 0.344575 -0.0186688
0.810485 0.329683 -0.0187003
0.750099 0.33958 -0.0184882
0.800419 0.334633 -0.0187172
0.770233 0.339514 -0.0184615
0.760179 0.344459 -0.0187273
0.820434 0.344663 -0.0184661
0.840584 0.344748 -0.0184081
0.500024 0.334409 -0.0181302
0.559958 0.334422 -0.0181224
0.529993 0.339384 -0.0183876
0.549969 0.33939 -0.0184077
0.619917 0.3345 -0.0181764
0.569984 0.339408 -0.0183463
0.589957 0.339432 -0.0183713
0.680026 0.33451 -0.0181972
0.630138 0.339397 -0.0184206
0.650077 0.339429 -0.0184115
0.740092 0.33467 -0.0181816
0.690176 0.33951 -0.0183203
0.710118 0.33956 -0.0183204
0.730092 0.339613 -0.018414
0.790342 0.329605 -0.0181737
0.780284 0.334551 -0.0183072
0.830494 0.339714 -0.0181559
0.86072 0.344822 -0.0180887
0.119039 0.465261 -0.0228909
0.109039 0.470325 -0.0222663
0.119032 0.455213 -0.0223244
0.109039 0.460281 -0.0216791
0.119036 0.445182 -0.0217786
0.0990759 0.46537 -0.0208396
0.109043 0.4502 -0.0211113
0.11903 0.435027 -0.0212141
0.099085 0.4552 -0.0202353
0.109049 0.440033 -0.0205617
0.0891617 0.470298 -0.0196912
0.119058 0.424899 -0.0206128
0.109049 0.429942 -0.0200545
0.0990857 0.445076 -0.0197275
0.119093 0.414843 -0.0200431
0.0891712 0.460187 -0.0191446
0.109083 0.419904 -0.019493
0.0990904 0.434998 -0.0192732
0.119118 0.404814 -0.0195111
0.0891653 0.450128 -0.0186875
0.119146 0.394787 -0.0190049
0.10912 0.409878 -0.0189822
0.0991161 0.424958 -0.0187813
0.109148 0.399844 -0.0184759
0.0891568 0.44008 -0.0182703
0.119201 0.384749 -0.0184834
0.0991463 0.414929 -0.0182786
0.169468 0.349694 -0.018773
0.149319 0.349766 -0.0186111
0.159367 0.354723 -0.0190317
0.179527 0.354643 -0.0190913
0.139216 0.354789 -0.018704
0.169428 0.359677 -0.0193925
0.149268 0.35974 -0.0192253
0.159327 0.364705 -0.0196389
0.179496 0.364626 -0.0197064
0.139163 0.364766 -0.0193055
0.169397 0.369661 -0.0199964
0.149225 0.369722 -0.0198191
0.159298 0.374713 -0.0201832
0.179475 0.374641 -0.0202692
0.139125 0.37476 -0.0198225
0.169382 0.37971 -0.0205061
0.149202 0.37975 -0.020296
0.179467 0.384714 -0.0208031
0.159286 0.384747 -0.0207214
0.16937 0.389794 -0.0210544
0.149179 0.389814 -0.0208178
0.179462 0.394816 -0.0213778
0.159271 0.394828 -0.0212683
0.169363 0.399913 -0.0216364
0.14916 0.399917 -0.0213673
0.179462 0.404961 -0.0219847
0.159261 0.404954 -0.0218385
0.169357 0.410073 -0.022261
0.149144 0.410063 -0.0219483
0.139049 0.404956 -0.0213977
0.128953 0.410046 -0.021259
0.139072 0.394845 -0.0208619
0.128984 0.399919 -0.0207144
0.1391 0.384781 -0.0203438
0.129018 0.389836 -0.0201979
0.129029 0.379786 -0.0197382
0.129061 0.36978 -0.0193018
0.129116 0.359803 -0.0187196
0.129182 0.349837 -0.0181202
0.189461 0.349668 -0.0198131
0.20962 0.349594 -0.0193514
0.229753 0.349512 -0.0190676
0.24989 0.349579 -0.0190882
0.199529 0.354619 -0.0199073
0.219684 0.354539 -0.0195211
0.239803 0.354475 -0.0193021
0.189416 0.359668 -0.0204401
0.209598 0.359592 -0.0199749
0.229742 0.359509 -0.0196805
0.249881 0.359596 -0.0197074
0.199498 0.364623 -0.0205384
0.21967 0.364538 -0.0201451
0.239795 0.364473 -0.0199143
0.189375 0.36969 -0.0210759
0.20958 0.369604 -0.0206106
0.229734 0.369513 -0.0203076
0.249875 0.369608 -0.0203395
0.199477 0.374657 -0.0211022
0.219664 0.374566 -0.0207082
0.239792 0.374502 -0.0204739
0.189349 0.37973 -0.0216279
0.209576 0.379641 -0.0211482
0.229737 0.379583 -0.0208179
0.249882 0.37967 -0.0207989
0.199462 0.384761 -0.0216531
0.219666 0.384657 -0.0212482
0.239803 0.384554 -0.0210171
0.189318 0.389863 -0.0222274
0.209571 0.389761 -0.0217279
0.249892 0.389796 -0.0212872
0.229747 0.389651 -0.0213927
0.199448 0.394922 -0.022268
0.21967 0.394798 -0.021844
0.239812 0.394682 -0.0215959
0.189291 0.400058 -0.0228824
0.209569 0.399934 -0.0223618
0.229754 0.399874 -0.0220232
0.199436 0.405147 -0.0229578
0.219678 0.404994 -0.0225119
0.239821 0.40493 -0.0222726
0.189264 0.41032 -0.0236189
0.209568 0.410164 -0.023075
0.229766 0.410095 -0.0227366
0.249902 0.41026 -0.0224746
0.249894 0.399915 -0.0218779
0.159243 0.41518 -0.0224489
0.179457 0.415124 -0.0226253
0.139024 0.415096 -0.0219549
0.169345 0.420257 -0.022901
0.149122 0.420235 -0.0225431
0.128917 0.420205 -0.0218179
0.15923 0.42527 -0.0230616
0.179455 0.425197 -0.0232371
0.138997 0.425348 -0.0225407
0.149103 0.430309 -0.0231518
0.169342 0.430233 -0.023477
0.128867 0.430414 -0.0224362
0.159233 0.4353 -0.0236072
0.179465 0.435228 -0.0237603
0.13899 0.435381 -0.0231037
0.149117 0.44034 -0.0236915
0.169364 0.440277 -0.0239818
0.128871 0.440441 -0.0230037
0.159252 0.445346 -0.0241384
0.179491 0.445282 -0.0242444
0.139 0.44542 -0.0236705
0.149132 0.45039 -0.0242314
0.169387 0.450335 -0.0244854
0.128877 0.450489 -0.0235656
0.159271 0.455407 -0.0246581
0.179516 0.455347 -0.0247361
0.139013 0.455479 -0.0242054
0.149145 0.460456 -0.0247699
0.169406 0.460403 -0.0250147
0.128881 0.460523 -0.0240878
0.179525 0.4654 -0.0252929
0.13901 0.465527 -0.0247832
0.159281 0.465484 -0.0252428
0.169402 0.470463 -0.0256422
0.149139 0.470546 -0.0254095
0.128867 0.47062 -0.0247131
0.199421 0.415289 -0.0236747
0.219681 0.415235 -0.0232395
0.239831 0.415162 -0.0229984
0.189231 0.42033 -0.0242999
0.20956 0.420274 -0.0237586
0.229774 0.420217 -0.0234038
0.2499 0.420437 -0.0231133
0.199407 0.425321 -0.0243372
0.219686 0.425226 -0.0238566
0.239842 0.425138 -0.0235815
0.189207 0.430368 -0.0249818
0.209561 0.430294 -0.0243947
0.229785 0.430193 -0.0239986
0.249899 0.430474 -0.023747
0.199409 0.43533 -0.0249442
0.219706 0.435234 -0.0244136
0.239868 0.435145 -0.0240936
0.18921 0.440344 -0.0255662
0.209587 0.440281 -0.0249394
0.229822 0.440191 -0.0244894
0.249902 0.440486 -0.0243089
0.199427 0.445337 -0.0254949
0.219742 0.445276 -0.0249377
0.239911 0.445192 -0.0245614
0.189217 0.450404 -0.0261273
0.209616 0.450309 -0.0254477
0.229865 0.450251 -0.0249647
0.24991 0.450539 -0.024814
0.199447 0.455387 -0.026012
0.219778 0.455327 -0.0254219
0.239952 0.455247 -0.0249954
0.189222 0.460471 -0.0266695
0.209643 0.460373 -0.0259639
0.229903 0.460314 -0.0254443
0.249921 0.460637 -0.0252993
0.19946 0.465474 -0.0265888
0.219808 0.465407 -0.0259682
0.239988 0.465326 -0.0254949
0.189218 0.47058 -0.0273112
0.20966 0.470469 -0.0265858
0.229931 0.4704 -0.026033
0.249926 0.470736 -0.0258797
0.0593537 0.535637 -0.0181076
0.119018 0.475309 -0.0235207
0.0990376 0.475398 -0.0214788
0.0792243 0.475332 -0.0184743
0.108987 0.48036 -0.0229537
0.089076 0.480462 -0.0204697
0.118981 0.485374 -0.0242768
0.0989641 0.485404 -0.0222129
0.0791488 0.485381 -0.0191963
0.108925 0.490402 -0.023762
0.0889854 0.490451 -0.0212667
0.118907 0.495443 -0.0251655
0.0988842 0.495429 -0.0230827
0.0790394 0.495522 -0.0201248
0.108835 0.500494 -0.0245988
0.0888998 0.500474 -0.0220747
0.0691148 0.500408 -0.0186605
0.118828 0.505593 -0.0260159
0.0987953 0.505541 -0.0238729
0.0789442 0.505521 -0.0208824
0.108752 0.510624 -0.0254733
0.0888089 0.510561 -0.0228729
0.0690434 0.510594 -0.0194628
0.118758 0.515751 -0.0269084
0.098705 0.515642 -0.0247211
0.0788619 0.515563 -0.0216589
0.108677 0.520796 -0.0263275
0.0887129 0.52065 -0.0236832
0.0689657 0.520581 -0.0201491
0.118689 0.525974 -0.0277799
0.0986304 0.5258 -0.0255365
0.0787824 0.525644 -0.0223959
0.108609 0.531022 -0.0271188
0.0886375 0.530773 -0.0244038
0.0689143 0.530624 -0.0207298
0.118613 0.536272 -0.0286233
0.0985554 0.536016 -0.0262716
0.0787057 0.535757 -0.0230379
0.0591586 0.545685 -0.0188636
0.0589971 0.555689 -0.0195621
0.0588194 0.565844 -0.02039
0.0490858 0.570642 -0.0181967
0.0587146 0.57612 -0.0208918
0.0489517 0.580749 -0.0186057
0.0586514 0.586169 -0.0212516
0.048886 0.590975 -0.0187656
0.0586093 0.596226 -0.0213969
0.10851 0.541297 -0.0280227
0.0885347 0.541 -0.0251868
0.0688098 0.54074 -0.021401
0.118499 0.546418 -0.0296375
0.0984428 0.546291 -0.0271519
0.0785693 0.545946 -0.0238076
0.108397 0.551449 -0.0289616
0.0884364 0.551271 -0.0259383
0.0687055 0.550922 -0.0220068
0.0983348 0.556435 -0.0279777
0.0784815 0.556218 -0.0244082
0.118381 0.556605 -0.0306487
0.0883337 0.561399 -0.0266616
0.0686062 0.561121 -0.0225343
0.108276 0.561616 -0.0298686
0.0783898 0.56632 -0.0250289
0.118275 0.566792 -0.0315455
0.0982235 0.566588 -0.0287605
0.0882392 0.57153 -0.0273271
[...]
POINT_DATA 6868
VECTORS alpha float
5.63748e-06 -1.76894e-08 1.78757e-07
-7.26782e-09 1.56128e-05 -1.06404e-06
5.96386e-06 -1.9332e-08 1.26901e-07
9.33255e-09 1.46473e-05 -9.93043e-07
1.144e-08 1.15721e-05 -8.23614e-07
9.87878e-09 7.47929e-06 -5.29454e-07
7.79402e-09 6.4731e-06 -4.56671e-07
3.7445e-09 4.74432e-06 -3.37234e-07
1.36783e-09 2.3476e-06 -1.66229e-07
-1.54556e-08 1.47701e-05 -1.00668e-06
6.30435e-09 1.5688e-05 -1.08235e-06
5.43902e-06 -1.84966e-08 1.87294e-07
-6.45119e-09 1.57704e-05 -1.07664e-06
6.26545e-06 -2.07398e-08 6.5405e-08
2.35887e-08 1.31766e-05 -8.89634e-07
6.52368e-06 -2.18971e-08 6.16988e-08
1.33307e-08 1.00112e-05 -7.11413e-07
1.35835e-08 8.64006e-06 -6.1094e-07
7.23383e-06 -1.19489e-08 3.10038e-08
6.33166e-09 5.57258e-06 -3.94884e-07
1.95757e-09 3.9337e-06 -2.81037e-07
5.22125e-10 3.13719e-06 -2.24218e-07
4.42699e-10 1.56063e-06 -1.11053e-07
-2.54649e-11 7.79032e-07 -5.53766e-08
5.28703e-06 -2.21419e-08 -8.66538e-09
-3.18047e-08 1.31049e-05 -8.81467e-07
5.73111e-06 -1.97439e-08 1.30555e-07
1.10771e-08 1.47934e-05 -1.00298e-06
1.23492e-08 1.16831e-05 -8.30512e-07
6.73458e-06 -1.85687e-08 4.95642e-08
6.92245e-06 -1.78747e-08 1.65692e-08
7.07815e-06 -1.68901e-08 -1.48186e-08
1.02898e-08 7.54449e-06 -5.3354e-07
7.34164e-06 -1.21581e-08 8.31771e-09
7.43217e-06 -1.1411e-08 -1.40135e-08
3.79592e-09 4.78259e-06 -3.39051e-07
7.53035e-06 -1.05688e-08 3.53862e-08
7.59957e-06 -9.81883e-09 1.82941e-08
7.65588e-06 -9.00177e-09 1.66498e-09
1.35756e-09 2.36729e-06 -1.67788e-07
7.69892e-06 -2.99756e-09 1.71379e-08
7.72842e-06 -2.11901e-09 -1.95312e-09
7.74384e-06 -1.22397e-09 -2.07913e-08
5.63807e-06 1.7708e-08 -1.78748e-07
-7.27669e-09 -1.56128e-05 1.06404e-06
2.80941e-14 8.89526e-11 -6.26808e-12
1.34599e-09 -2.34738e-06 1.66155e-07
3.67053e-09 -4.7441e-06 3.37141e-07
7.79176e-09 -6.4732e-06 4.56656e-07
9.87751e-09 -7.47936e-06 5.29421e-07
1.14362e-08 -1.15721e-05 8.23638e-07
5.9645e-06 1.93534e-08 -1.26883e-07
9.32167e-09 -1.46473e-05 9.93004e-07
7.74501e-06 5.66952e-10 1.79572e-08
-2.53619e-11 -7.78817e-07 5.5344e-08
4.35489e-10 -1.56041e-06 1.10998e-07
7.53199e-06 9.98536e-09 -3.61683e-08
5.13052e-10 -3.13698e-06 2.2411e-07
1.92135e-09 -3.93349e-06 2.8093e-07
7.23428e-06 1.19363e-08 -3.10507e-08
6.3291e-09 -5.57269e-06 3.94874e-07
1.35846e-08 -8.64013e-06 6.10889e-07
1.33303e-08 -1.00112e-05 7.1139e-07
5.43851e-06 1.85097e-08 -1.87259e-07
6.52435e-06 2.19079e-08 -6.16902e-08
-6.46311e-09 -1.57704e-05 1.07662e-06
6.26611e-06 2.0764e-08 -6.53765e-08
2.3576e-08 -1.31766e-05 8.89562e-07
6.29221e-09 -1.5688e-05 1.08235e-06
-1.54651e-08 -1.47701e-05 1.00669e-06
2.73662e-14 8.08941e-11 -5.72569e-12
1.33575e-09 -2.36704e-06 1.67714e-07
7.72842e-06 2.01281e-09 1.72484e-09
7.69893e-06 2.92901e-09 -1.77381e-08
3.7153e-09 -4.78227e-06 3.38963e-07
7.65586e-06 8.95274e-09 -1.42271e-09
7.59966e-06 9.80241e-09 -1.82423e-08
1.02878e-08 -7.5445e-06 5.33515e-07
7.43241e-06 1.1413e-08 1.39858e-08
7.34199e-06 1.21527e-08 -8.35374e-09
1.23475e-08 -1.16831e-05 8.30534e-07
7.0787e-06 1.69078e-08 1.4801e-08
6.92306e-06 1.78896e-08 -1.65772e-08
6.73522e-06 1.85811e-08 -4.95658e-08
5.73052e-06 1.97562e-08 -1.30524e-07
1.10631e-08 -1.47934e-05 1.00293e-06
5.28757e-06 2.21348e-08 8.66515e-09
-3.18117e-08 -1.31049e-05 8.81496e-07
5.72983e-08 1.12247e-05 -6.33967e-07
7.28296e-06 -1.69179e-08 -7.3182e-07
6.05541e-08 1.11531e-05 -6.17566e-07
6.04091e-06 -1.57829e-08 -6.01155e-07
5.5279e-08 1.10617e-05 -6.08648e-07
4.36561e-08 1.19426e-05 -6.39694e-07
5.13537e-06 -1.69619e-08 -5.00532e-07
4.98217e-08 1.0979e-05 -6.04391e-07
4.86514e-08 1.19392e-05 -5.86676e-07
4.56923e-06 -2.25846e-08 -4.31722e-07
7.06365e-06 -1.49578e-08 -9.96815e-07
4.07998e-08 1.09277e-05 -6.01864e-07
4.25659e-06 -2.66728e-08 -3.92908e-07
4.36299e-08 1.18896e-05 -5.67397e-07
3.04649e-08 1.09187e-05 -6.03817e-07
5.98817e-06 -2.07558e-08 -8.29303e-07
4.13451e-06 -2.48827e-08 -3.74664e-07
3.29414e-08 1.18267e-05 -5.75822e-07
2.18013e-08 1.09393e-05 -6.13995e-07
5.16743e-06 -2.38089e-08 -7.04545e-07
1.29937e-08 1.10023e-05 -6.23286e-07
4.00122e-06 -2.28804e-08 -3.5502e-07
2.17128e-08 1.17858e-05 -5.90934e-07
4.07824e-06 -2.24498e-08 -3.53178e-07
4.62121e-06 -2.69668e-08 -6.20317e-07
-6.48733e-10 1.10992e-05 -6.37853e-07
1.05294e-08 1.17793e-05 -6.07055e-07
5.41472e-06 -2.16672e-08 -1.18366e-08
5.04308e-06 -1.94686e-08 -8.31073e-08
-2.28856e-09 1.45924e-05 -9.80753e-07
1.85399e-08 1.55065e-05 -1.05616e-06
-1.86283e-08 1.29378e-05 -8.55918e-07
5.45809e-06 -2.11061e-08 -1.31922e-08
5.07161e-06 -1.84842e-08 -8.59368e-08
9.05555e-09 1.44082e-05 -9.51464e-07
2.86495e-08 1.53148e-05 -1.02507e-06
-6.93241e-09 1.27684e-05 -8.29009e-07
5.42959e-06 -2.1274e-08 -1.59712e-08
5.04098e-06 -1.81596e-08 -8.92745e-08
1.86116e-08 1.42311e-05 -9.25431e-07
3.68607e-08 1.51246e-05 -9.95963e-07
3.18912e-09 1.26107e-05 -8.05193e-07
5.27607e-06 -1.67326e-08 -2.26015e-08
4.9047e-06 -1.3772e-08 -9.49221e-08
4.18553e-08 1.49428e-05 -9.79446e-07
2.57315e-08 1.40652e-05 -9.14347e-07
5.061e-06 -1.36533e-08 -2.63117e-08
4.72678e-06 -1.08014e-08 -9.71682e-08
4.27937e-08 1.4772e-05 -9.70647e-07
2.78055e-08 1.39202e-05 -9.06817e-07
4.73464e-06 -1.17279e-08 -2.97001e-08
4.46488e-06 -8.97084e-09 -9.75624e-08
4.07476e-08 1.46264e-05 -9.64386e-07
2.74644e-08 1.38061e-05 -9.02191e-07
4.4011e-06 -1.12921e-08 -3.261e-08
4.2181e-06 -8.69158e-09 -9.82566e-08
1.39467e-08 1.22739e-05 -7.915e-07
4.09762e-06 -6.34931e-09 -1.82476e-07
1.29946e-08 1.23551e-05 -7.93774e-07
4.25561e-06 -6.54727e-09 -1.8262e-07
1.02399e-08 1.24707e-05 -7.98582e-07
4.44614e-06 -8.07455e-09 -1.83731e-07
4.5806e-06 -1.07935e-08 -1.79567e-07
4.68954e-06 -1.50025e-08 -1.73837e-07
4.71302e-06 -1.57938e-08 -1.69308e-07
4.69067e-06 -1.70727e-08 -1.64412e-07
5.79888e-06 -1.66559e-08 1.7527e-07
6.15877e-06 -1.86533e-08 1.2783e-07
6.49571e-06 -2.05836e-08 6.92001e-08
6.78732e-06 -1.93826e-08 7.22941e-08
-1.52169e-09 1.54386e-05 -1.04466e-06
1.32935e-08 1.44832e-05 -9.79702e-07
2.43846e-08 1.30327e-05 -8.79895e-07
5.87192e-06 -1.56049e-08 1.76146e-07
6.2598e-06 -1.81715e-08 1.31727e-07
6.62899e-06 -2.06875e-08 7.57099e-08
6.95162e-06 -1.58779e-08 8.94482e-08
4.03485e-09 1.52484e-05 -1.02327e-06
1.69224e-08 1.43007e-05 -9.63216e-07
2.62724e-08 1.28645e-05 -8.69672e-07
5.86179e-06 -1.53346e-08 1.73243e-07
6.2685e-06 -1.84434e-08 1.3211e-07
6.6631e-06 -2.16597e-08 7.88682e-08
7.01374e-06 -1.32308e-08 1.01416e-07
8.92447e-09 1.50616e-05 -1.01232e-06
1.99551e-08 1.41168e-05 -9.54319e-07
2.7601e-08 1.26906e-05 -8.6552e-07
5.70929e-06 -1.42853e-08 1.71358e-07
6.12045e-06 -1.72909e-08 1.31399e-07
6.5285e-06 -1.91012e-08 7.67308e-08
6.90137e-06 -9.32783e-09 1.04527e-07
1.20815e-08 1.48823e-05 -1.01984e-06
2.20661e-08 1.39334e-05 -9.583e-07
3.00196e-08 1.25067e-05 -8.65977e-07
5.47424e-06 -1.40337e-08 1.66871e-07
5.87025e-06 -1.64249e-08 1.28368e-07
6.65785e-06 -7.4083e-09 1.01904e-07
6.27595e-06 -1.89758e-08 7.86736e-08
1.37104e-08 1.47039e-05 -1.03628e-06
2.34723e-08 1.37451e-05 -9.65216e-07
3.09847e-08 1.23178e-05 -8.65117e-07
5.09853e-06 -1.45713e-08 1.5605e-07
5.45367e-06 -1.64282e-08 1.19836e-07
5.83236e-06 -1.71698e-08 7.02158e-08
1.43581e-08 1.45382e-05 -1.05824e-06
2.41528e-08 1.35627e-05 -9.74239e-07
2.94336e-08 1.21325e-05 -8.76889e-07
4.68874e-06 -1.63308e-08 1.43344e-07
4.97638e-06 -1.74967e-08 1.09458e-07
5.30286e-06 -1.76853e-08 6.35853e-08
5.64524e-06 -7.94296e-09 8.57819e-08
6.20833e-06 -8.16907e-09 1.00383e-07
3.05403e-08 1.37335e-05 -9.00058e-07
4.4412e-08 1.45141e-05 -9.45421e-07
2.08588e-08 1.22329e-05 -7.82099e-07
4.3264e-06 -1.26567e-08 -3.75892e-08
4.22436e-06 -9.99029e-09 -1.03925e-07
4.17649e-06 -7.61376e-09 -1.91625e-07
4.29659e-08 1.36886e-05 -8.56629e-07
5.54158e-08 1.44362e-05 -8.85017e-07
3.03093e-08 1.22263e-05 -7.79546e-07
4.17111e-06 -1.41296e-08 -1.02576e-07
4.16256e-06 -1.72083e-08 -3.00801e-08
4.22422e-06 -1.04408e-08 -1.98705e-07
5.41323e-08 1.37032e-05 -8.00744e-07
6.5211e-08 1.44193e-05 -8.13204e-07
4.16693e-08 1.2265e-05 -7.39585e-07
4.33896e-06 -1.19241e-08 -9.9932e-08
4.21919e-06 -1.49691e-08 -2.25746e-08
4.48154e-06 -8.45609e-09 -2.05694e-07
6.33809e-08 1.37776e-05 -7.46192e-07
7.24818e-08 1.44678e-05 -7.56894e-07
5.19189e-08 1.23533e-05 -6.89007e-07
4.83429e-06 -1.14667e-08 -1.04363e-07
4.62411e-06 -1.48013e-08 -1.49729e-08
5.03507e-06 -7.96289e-09 -2.27753e-07
6.70302e-08 1.38975e-05 -7.35406e-07
7.44631e-08 1.45731e-05 -7.4276e-07
5.66912e-08 1.24713e-05 -6.81324e-07
5.78034e-06 -1.28142e-08 -1.24326e-07
5.51732e-06 -1.70996e-08 -1.3505e-08
5.98908e-06 -8.13745e-09 -2.76404e-07
6.77062e-08 1.47212e-05 -7.69193e-07
5.21254e-08 1.25894e-05 -7.17815e-07
6.2271e-08 1.40411e-05 -7.74971e-07
6.97554e-06 -2.16667e-08 -1.31199e-08
7.22413e-06 -1.80335e-08 -1.57284e-07
7.36441e-06 -1.25578e-08 -3.50666e-07
2.021e-08 1.43913e-05 -1.03227e-06
2.66153e-08 1.34002e-05 -9.74313e-07
3.01654e-08 1.19553e-05 -8.72556e-07
4.53533e-06 -1.85701e-08 1.45522e-07
4.74291e-06 -1.9367e-08 1.08271e-07
4.99957e-06 -1.97884e-08 6.47382e-08
5.28932e-06 -1.0777e-08 8.20155e-08
3.18359e-08 1.42732e-05 -9.51617e-07
3.38018e-08 1.32568e-05 -8.85725e-07
3.34828e-08 1.17967e-05 -7.88179e-07
4.25853e-06 -2.18135e-08 1.475e-07
4.35349e-06 -2.22664e-08 1.08551e-07
4.50833e-06 -2.1832e-08 6.64049e-08
4.71584e-06 -1.48632e-08 7.71159e-08
4.19288e-08 1.4236e-05 -8.64715e-07
4.03724e-08 1.31863e-05 -8.03105e-07
3.67033e-08 1.16978e-05 -7.13193e-07
4.19529e-06 -1.97121e-08 1.53099e-07
4.1604e-06 -1.92323e-08 1.13711e-07
4.19162e-06 -1.77918e-08 7.39421e-08
4.29533e-06 -1.38561e-08 6.7313e-08
5.26985e-08 1.4273e-05 -7.58892e-07
4.79706e-08 1.31852e-05 -7.10321e-07
4.07969e-08 1.1659e-05 -6.32145e-07
4.49485e-06 -2.18955e-08 1.71568e-07
4.32763e-06 -1.92729e-08 1.2567e-07
4.22547e-06 -1.74921e-08 8.58286e-08
4.20892e-06 -1.51069e-08 6.30797e-08
6.09132e-08 1.43701e-05 -7.04222e-07
5.27723e-08 1.32456e-05 -6.5806e-07
4.23326e-08 1.16805e-05 -5.86823e-07
5.31483e-06 -2.74398e-08 2.07505e-07
5.02386e-06 -2.27058e-08 1.53852e-07
4.78546e-06 -1.9208e-08 1.07937e-07
4.64009e-06 -1.958e-08 6.47085e-08
6.3826e-08 1.45174e-05 -7.14081e-07
5.33808e-08 1.33641e-05 -6.64294e-07
4.06988e-08 1.17624e-05 -5.92439e-07
6.7663e-06 -3.99861e-08 2.67219e-07
6.3905e-06 -3.15381e-08 2.04456e-07
6.04233e-06 -2.49727e-08 1.49748e-07
5.7894e-06 -2.80033e-08 6.86686e-08
-5.76768e-08 2.59356e-05 -1.56488e-06
5.71357e-08 1.12396e-05 -6.77217e-07
3.9282e-08 1.18612e-05 -6.93831e-07
4.00518e-08 1.73145e-05 -8.94916e-07
8.91707e-06 -1.28404e-08 -9.08511e-07
8.43381e-06 -4.9356e-09 -1.22938e-06
5.14141e-08 1.11466e-05 -7.3586e-07
3.73066e-08 1.16562e-05 -7.56307e-07
2.58045e-08 1.69836e-05 -1.02791e-06
1.08604e-05 -3.32068e-09 -1.11817e-06
1.00114e-05 -2.62608e-09 -1.48639e-06
3.8831e-08 1.08925e-05 -8.15221e-07
2.27734e-08 1.12774e-05 -8.33919e-07
-3.56414e-11 1.64614e-05 -1.20035e-06
1.30499e-05 2.25614e-08 -1.36439e-06
1.17412e-05 1.79894e-08 -1.76939e-06
1.02163e-05 -7.6777e-09 -1.98662e-06
1.76031e-08 1.04216e-05 -8.67751e-07
1.07268e-08 1.06862e-05 -8.77847e-07
-1.67784e-08 1.57433e-05 -1.23926e-06
1.52874e-05 5.37493e-08 -1.62434e-06
1.34555e-05 6.16624e-08 -2.05944e-06
1.14506e-05 4.65965e-08 -2.29588e-06
2.04051e-09 9.6863e-06 -8.55333e-07
-3.29252e-09 9.83179e-06 -8.60974e-07
-3.12348e-08 1.48065e-05 -1.24189e-06
1.72794e-05 8.57213e-08 -1.88363e-06
1.48854e-05 9.21285e-08 -2.31432e-06
1.23969e-05 7.09677e-08 -2.52758e-06
-8.83594e-09 8.65593e-06 -7.79689e-07
-1.47899e-08 8.70425e-06 -7.79351e-07
-3.82209e-08 1.36361e-05 -1.17976e-06
1.86822e-05 1.1696e-07 -2.1255e-06
1.57525e-05 1.27994e-07 -2.51014e-06
1.2845e-05 1.15799e-07 -2.68081e-06
-9.41647e-09 7.30949e-06 -6.46278e-07
-1.45487e-08 7.3037e-06 -6.40495e-07
-3.20258e-08 1.22379e-05 -1.0358e-06
-1.08301e-08 2.44941e-05 -1.6274e-06
1.791e-08 2.31503e-05 -1.60738e-06
3.48606e-08 2.20537e-05 -1.41664e-06
2.935e-06 2.07397e-08 -8.03549e-07
6.4919e-08 2.14174e-05 -1.09349e-06
-1.68847e-06 -2.14636e-08 4.71128e-07
9.28924e-08 2.14434e-05 -7.6005e-07
-7.66931e-06 -1.36397e-07 2.15048e-06
1.3807e-07 2.24716e-05 -3.25907e-07
1.91092e-05 1.35528e-07 -2.3072e-06
1.57381e-05 1.60378e-07 -2.61584e-06
1.25545e-05 1.44223e-07 -2.6905e-06
-1.24594e-08 5.67808e-06 -5.14163e-07
-1.37747e-08 5.68554e-06 -4.90993e-07
-2.72434e-08 1.07053e-05 -8.8101e-07
1.80957e-05 1.40562e-07 -2.30223e-06
1.44665e-05 1.74204e-07 -2.53189e-06
1.12345e-05 1.59663e-07 -2.49378e-06
-1.11037e-08 3.92987e-06 -3.23034e-07
-1.78055e-08 9.13854e-06 -6.67427e-07
-1.02036e-08 3.82295e-06 -3.39839e-07
1.14904e-05 1.5556e-07 -2.1195e-06
8.55718e-06 1.42195e-07 -1.98005e-06
1.50448e-05 1.39547e-07 -2.06887e-06
-1.32772e-08 7.69552e-06 -4.89915e-07
-5.42514e-09 1.87479e-06 -1.51646e-07
-5.58976e-09 2.19222e-06 -1.61048e-07
6.47624e-06 9.78945e-08 -1.23238e-06
4.29185e-06 8.07549e-08 -1.02316e-06
9.5235e-06 1.01959e-07 -1.34818e-06
-6.66087e-09 6.60675e-06 -3.41213e-07
-4.82704e-11 2.01458e-08 -1.3625e-09
-1.31243e-09 6.84073e-07 -4.1539e-08
-1.77093e-06 -3.67488e-08 4.313e-07
1.09527e-06 1.39244e-08 -1.59212e-07
-8.8858e-07 -1.53051e-08 1.72986e-07
3.64335e-09 6.14391e-06 -2.07155e-07
1.74181e-09 -1.48362e-06 7.27947e-08
1.35976e-10 -3.25822e-07 1.36645e-08
-9.77658e-06 -2.26942e-07 2.41071e-06
-1.05879e-05 -1.62495e-07 1.5529e-06
-1.08408e-05 -2.14203e-07 2.13756e-06
-2.77121e-09 -2.31841e-06 5.06469e-08
-1.09437e-09 -5.13645e-07 8.08902e-09
2.20665e-08 6.61914e-06 -6.18917e-08
5.49015e-08 1.4174e-05 -8.48955e-07
5.73639e-08 1.48843e-05 -8.52225e-07
4.8887e-08 1.26711e-05 -7.91124e-07
9.25857e-06 -1.95857e-08 -2.15563e-07
9.113e-06 -2.67337e-08 -1.57715e-08
9.23351e-06 -1.36281e-08 -4.72835e-07
4.2391e-08 1.4259e-05 -1.01207e-06
4.07789e-08 1.50313e-05 -1.02776e-06
4.01485e-08 1.26713e-05 -9.32473e-07
1.18332e-05 -1.92473e-08 -3.14723e-07
1.19061e-05 -2.90269e-08 -3.65357e-08
1.15245e-05 -1.26267e-08 -6.54822e-07
1.60958e-08 1.42395e-05 -1.26434e-06
1.02629e-08 1.5107e-05 -1.31295e-06
1.75556e-08 1.25345e-05 -1.14494e-06
1.4889e-05 -2.29141e-09 -4.19366e-07
1.53001e-05 -1.70907e-08 -7.34432e-08
1.41784e-05 6.75734e-09 -8.31659e-07
1.92877e-09 1.22124e-05 -1.2503e-06
-5.79263e-09 1.40577e-05 -1.42477e-06
-1.63985e-08 1.50551e-05 -1.50215e-06
1.69733e-05 6.08633e-08 -9.54552e-07
1.81878e-05 3.84226e-08 -4.9422e-07
1.90483e-05 1.51373e-08 -1.10052e-07
-4.12149e-08 1.48256e-05 -1.60315e-06
-1.12877e-08 1.16378e-05 -1.2804e-06
-2.58656e-08 1.36513e-05 -1.50248e-06
1.95955e-05 1.23203e-07 -1.12133e-06
2.14201e-05 9.27528e-08 -6.17043e-07
2.28556e-05 5.86934e-08 -1.92938e-07
-5.88342e-08 1.43335e-05 -1.62904e-06
-1.58108e-08 1.07643e-05 -1.21629e-06
-3.76086e-08 1.29622e-05 -1.48757e-06
2.62273e-05 1.11752e-07 -3.33971e-07
2.41282e-05 1.58601e-07 -7.79291e-07
2.16412e-05 1.76194e-07 -1.27987e-06
6.17136e-08 1.46939e-05 -8.092e-07
4.87285e-08 1.35287e-05 -7.44866e-07
3.56159e-08 1.18948e-05 -6.67983e-07
8.98e-06 -5.54225e-08 3.45159e-07
8.57499e-06 -4.56225e-08 2.89552e-07
8.15586e-06 -3.14911e-08 2.315e-07
7.81405e-06 -4.15455e-08 8.77432e-08
4.95024e-08 1.48773e-05 -1.04395e-06
3.72983e-08 1.37135e-05 -9.61852e-07
2.359e-08 1.20699e-05 -8.50876e-07
1.19702e-05 -8.09349e-08 4.30274e-07
1.16256e-05 -6.61295e-08 3.9652e-07
1.12106e-05 -4.34627e-08 3.51118e-07
1.08161e-05 -6.60612e-08 1.70996e-07
2.13141e-08 1.50235e-05 -1.45365e-06
1.08429e-08 1.38919e-05 -1.34267e-06
-8.48979e-11 1.22547e-05 -1.18955e-06
1.56969e-05 -1.01695e-07 5.81201e-07
1.55091e-05 -7.54785e-08 5.3358e-07
1.51827e-05 -5.36384e-08 4.88796e-07
1.48444e-05 -7.28376e-08 3.36444e-07
5.02627e-10 1.50907e-05 -1.6956e-06
-9.19944e-09 1.40331e-05 -1.56807e-06
-1.79962e-08 1.24241e-05 -1.39146e-06
1.99156e-05 -8.98476e-08 8.39046e-07
1.99884e-05 -6.62807e-08 7.4143e-07
1.9841e-05 -3.89803e-08 6.32582e-07
1.96409e-05 -6.84333e-08 4.78522e-07
-2.0119e-08 1.50257e-05 -1.87514e-06
-2.85395e-08 1.40694e-05 -1.74762e-06
-3.49453e-08 1.25205e-05 -1.5535e-06
2.43477e-05 -6.54633e-08 1.10531e-06
2.48119e-05 -5.2343e-08 9.5948e-07
2.49669e-05 -3.42618e-08 7.93657e-07
2.50402e-05 -3.99607e-08 6.69066e-07
-4.55121e-08 1.39444e-05 -1.85642e-06
-4.95676e-08 1.24937e-05 -1.65754e-06
-3.57645e-08 1.47544e-05 -1.95606e-06
3.00292e-05 -5.14727e-08 9.8481e-07
2.84698e-05 -4.74332e-08 1.38481e-06
2.94497e-05 -4.73068e-08 1.19268e-06
3.04693e-05 -2.32849e-08 8.31921e-07
-6.98951e-08 1.35136e-05 -1.56644e-06
-1.20191e-08 9.55081e-06 -1.04259e-06
-3.94968e-08 1.19373e-05 -1.35622e-06
2.58231e-05 1.77105e-07 -8.76407e-07
2.8623e-05 1.245e-07 -4.45663e-07
2.26656e-05 2.21286e-07 -1.37243e-06
-7.57909e-08 1.23495e-05 -1.40497e-06
-3.42835e-08 1.05483e-05 -1.11363e-06
-4.96614e-09 7.99165e-06 -7.82183e-07
2.58309e-05 1.86758e-07 -9.57029e-07
2.92969e-05 1.34847e-07 -5.9451e-07
2.20925e-05 2.21835e-07 -1.36879e-06
-2.66501e-08 8.80445e-06 -7.95408e-07
-6.61495e-08 1.08146e-05 -1.08742e-06
1.82011e-09 6.12136e-06 -4.79985e-07
2.32851e-05 1.81964e-07 -1.00757e-06
2.72685e-05 1.35975e-07 -6.99236e-07
1.91753e-05 2.03995e-07 -1.32485e-06
-1.93208e-08 6.78985e-06 -5.45562e-07
-5.67797e-08 8.96439e-06 -8.12048e-07
3.50661e-09 4.05731e-06 -2.78315e-07
1.75189e-05 1.65534e-07 -8.76126e-07
2.17581e-05 1.35948e-07 -6.51663e-07
1.33648e-05 1.6678e-07 -1.04758e-06
-9.9941e-09 4.64463e-06 -3.02783e-07
-4.19368e-08 6.90794e-06 -5.23339e-07
4.05626e-09 1.96818e-06 -1.0411e-07
1.19277e-05 9.64932e-08 -3.84264e-07
4.11113e-06 6.13347e-08 -3.48392e-07
7.83778e-06 8.6858e-08 -4.32384e-07
-2.12003e-09 2.57336e-06 -1.12373e-07
-2.50084e-08 4.81642e-06 -2.62314e-07
3.45255e-10 8.91918e-08 -2.77407e-09
-2.96713e-06 -3.00679e-08 1.04224e-07
-9.05734e-06 -1.60663e-07 8.04901e-07
-6.36147e-06 -8.60459e-08 3.71271e-07
-1.09028e-08 2.93808e-06 -7.67852e-08
-7.96528e-09 -1.27686e-06 4.11358e-09
9.04527e-10 8.54793e-07 -1.34697e-08
-6.19634e-08 1.22324e-05 -1.65027e-06
-4.26849e-08 1.41432e-05 -1.86321e-06
-5.36572e-08 1.35254e-05 -1.79001e-06
3.1626e-05 -3.77425e-08 1.5545e-06
3.32242e-05 -6.37016e-08 1.35376e-06
3.43418e-05 -8.51577e-08 1.10716e-06
3.5223e-05 -7.93367e-08 9.85453e-07
-6.55526e-08 1.17093e-05 -1.41922e-06
-3.86758e-08 1.32034e-05 -1.54455e-06
-5.47979e-08 1.28143e-05 -1.53406e-06
3.30213e-05 -4.38241e-08 1.61794e-06
3.52859e-05 -1.00525e-07 1.40457e-06
3.70047e-05 -1.55346e-07 1.13308e-06
3.84454e-05 -1.40243e-07 1.03459e-06
-6.65154e-08 1.08869e-05 -1.10967e-06
-3.05675e-08 1.18829e-05 -1.09358e-06
-5.15382e-08 1.17556e-05 -1.14965e-06
3.1555e-05 -5.43512e-08 1.37379e-06
3.44679e-05 -1.21942e-07 1.2266e-06
3.68065e-05 -1.91393e-07 1.01555e-06
3.88579e-05 -1.53185e-07 7.63972e-07
-2.66736e-08 1.02326e-05 -8.67473e-07
-4.9434e-08 1.03788e-05 -9.43959e-07
-6.68032e-08 9.7702e-06 -9.3614e-07
2.63323e-05 -2.59227e-08 9.64774e-07
2.9784e-05 -8.62779e-08 9.25457e-07
3.26804e-05 -1.53905e-07 8.28075e-07
3.52729e-05 -1.8232e-07 5.72439e-07
-1.83594e-08 8.33271e-06 -5.96833e-07
-4.14449e-08 8.73373e-06 -6.84904e-07
-6.0481e-08 8.39229e-06 -7.05297e-07
1.63658e-05 6.1086e-09 5.43469e-07
2.01201e-05 -3.19252e-08 5.81135e-07
2.33983e-05 -8.13784e-08 5.69042e-07
2.62917e-05 -8.86893e-08 3.10574e-07
-7.41906e-09 6.33103e-06 -3.22624e-07
-2.88915e-08 6.93863e-06 -4.05362e-07
-4.8387e-08 6.8418e-06 -4.44033e-07
7.45064e-07 2.07213e-09 2.275e-08
4.44678e-06 3.29386e-09 1.17668e-07
7.82236e-06 -9.79913e-09 1.72705e-07
1.08325e-05 -4.37912e-08 1.11234e-07
3.15636e-09 4.4419e-06 -9.36508e-08
-1.44165e-08 5.17524e-06 -1.5042e-07
-3.26299e-08 5.27038e-06 -1.91393e-07
7.03891e-06 -1.7944e-08 5.56922e-08
7.2573e-06 -1.76791e-08 2.33887e-08
7.43885e-06 -1.71305e-08 -7.45293e-09
1.40557e-08 1.14448e-05 -8.12651e-07
1.45765e-08 9.90189e-06 -7.03406e-07
1.38353e-08 8.54812e-06 -6.05894e-07
7.25327e-06 -1.69197e-08 6.29781e-08
7.50447e-06 -1.81356e-08 3.33896e-08
7.71577e-06 -1.81257e-08 3.45963e-09
1.6701e-08 1.12968e-05 -7.98507e-07
1.4996e-08 9.77811e-06 -6.91428e-07
1.4112e-08 8.43922e-06 -5.98273e-07
7.36119e-06 -1.75456e-08 6.86224e-08
7.64598e-06 -1.95712e-08 4.02929e-08
7.8881e-06 -2.03109e-08 1.12211e-08
1.91633e-08 1.1144e-05 -7.91249e-07
1.69623e-08 9.63837e-06 -6.86584e-07