# vtk DataFile Version 3.0
vtk output
ASCII
DATASET POLYDATA
POINTS 24341 float
0.191319 1.07466 -0.0619832
0.180547 1.06979 -0.0616583
0.169593 1.07491 -0.0616568
0.191503 1.06468 -0.0613493
0.180335 1.07978 -0.0623057
0.191143 1.08464 -0.0626279
0.169351 1.0849 -0.0623222
0.180126 1.08976 -0.0629507
0.190964 1.09463 -0.0632631
0.169113 1.09488 -0.0629661
0.19078 1.10461 -0.0639212
0.179929 1.09974 -0.0635901
0.168927 1.10486 -0.0634903
0.179713 1.10973 -0.0642483
0.157877 1.10999 -0.0631617
0.190606 1.11459 -0.0645398
0.168693 1.11485 -0.064157
0.179523 1.11971 -0.0648531
0.157643 1.11998 -0.0637961
0.168448 1.12483 -0.0648241
0.190406 1.12458 -0.0651849
0.179341 1.1297 -0.0654291
0.157411 1.12997 -0.0644075
0.168218 1.13482 -0.0654721
0.190207 1.13456 -0.065834
0.17914 1.13968 -0.0660434
0.157174 1.13995 -0.0650215
0.168003 1.14481 -0.0660747
0.190029 1.14455 -0.0664388
0.178953 1.14967 -0.0666338
0.156955 1.14994 -0.0655946
0.146108 1.14509 -0.0641324
0.146353 1.1351 -0.0635489
0.146599 1.12511 -0.0629519
0.135251 1.15022 -0.0626473
0.158122 1.1 -0.0625316
0.146861 1.11512 -0.0623956
0.135485 1.14023 -0.0621501
0.158389 1.09002 -0.0618704
0.147116 1.10514 -0.0617616
0.135729 1.13025 -0.0616003
0.158645 1.08003 -0.0612672
0.112677 1.22038 -0.0613764
0.167789 1.15479 -0.0666701
0.189857 1.15453 -0.0670519
0.145856 1.15507 -0.0646873
0.178764 1.15965 -0.0672365
0.156706 1.15993 -0.0661875
0.134982 1.16021 -0.0632003
0.122758 1.22525 -0.0644056
0.189675 1.16451 -0.0676777
0.167565 1.16478 -0.0672889
0.145595 1.16506 -0.0652731
0.123385 1.19529 -0.0630486
0.123164 1.20528 -0.0634966
0.122946 1.21526 -0.0639813
0.123677 1.18531 -0.0625311
0.123967 1.17532 -0.0620085
0.134714 1.17019 -0.0637543
0.17855 1.16963 -0.0678896
0.156483 1.16991 -0.0667023
0.167341 1.17477 -0.0678863
0.18949 1.17449 -0.068305
0.145363 1.17505 -0.0657984
0.134444 1.18018 -0.0643112
0.178351 1.17962 -0.0685077
0.156274 1.1799 -0.0672209
0.167107 1.18475 -0.0685037
0.189302 1.18448 -0.068936
0.145098 1.18504 -0.0663384
0.134175 1.19017 -0.0648569
0.178159 1.1896 -0.069119
0.166931 1.19474 -0.0690465
0.189137 1.19446 -0.0695437
0.156018 1.18989 -0.0677852
0.14487 1.19502 -0.0668322
0.178013 1.19959 -0.0696476
0.155825 1.19987 -0.0683056
0.133947 1.20015 -0.0653453
0.144655 1.20501 -0.0673562
0.166782 1.20472 -0.0695049
0.188979 1.20444 -0.0701393
0.133751 1.21014 -0.0658376
0.133533 1.22012 -0.0663672
0.177852 1.20957 -0.0702117
0.155676 1.20986 -0.0687283
0.144454 1.21499 -0.0678945
0.188839 1.21442 -0.0707085
0.166615 1.21471 -0.0700316
0.177708 1.21956 -0.0707599
0.155446 1.21984 -0.0692953
0.144261 1.22498 -0.068391
0.18868 1.22441 -0.0713052
0.166425 1.22469 -0.0705933
0.124241 1.16534 -0.0614694
0.317289 1.07357 -0.0627246
0.337738 1.07346 -0.0629306
0.327534 1.06852 -0.0625502
0.34797 1.06842 -0.0626305
0.296838 1.0737 -0.0624442
0.276296 1.07386 -0.062036
0.317338 1.06359 -0.0620768
0.337777 1.06349 -0.0622708
0.286619 1.06879 -0.0619933
0.307115 1.06865 -0.0622347
0.202348 1.06955 -0.0616045
0.213088 1.07443 -0.061901
0.234453 1.07422 -0.0619236
0.255455 1.07403 -0.0619116
0.327578 1.05855 -0.0618993
0.348002 1.05845 -0.06198
0.296907 1.06373 -0.061819
0.223906 1.06934 -0.0615565
0.245062 1.06914 -0.0615957
0.265981 1.06896 -0.0615827
0.276396 1.06388 -0.0614136
0.317386 1.05362 -0.0614233
0.337817 1.05351 -0.0616044
0.286712 1.05882 -0.0613294
0.307173 1.05868 -0.0615847
0.358112 1.07336 -0.0630969
0.378486 1.07328 -0.0633378
0.398722 1.07322 -0.0633316
0.418992 1.07317 -0.0633665
0.439315 1.07314 -0.0633595
0.459572 1.07311 -0.0634559
0.479824 1.0731 -0.0632937
0.368351 1.06834 -0.062959
0.388654 1.06827 -0.0629537
0.408867 1.06821 -0.0630329
0.459575 1.06314 -0.0627763
0.42918 1.06817 -0.0629614
0.449449 1.06814 -0.06309
0.469698 1.06812 -0.0629986
0.48993 1.06811 -0.0629401
0.358201 1.06339 -0.062459
0.378547 1.06331 -0.0626559
0.398764 1.06325 -0.0626507
0.419011 1.06321 -0.0626794
0.449454 1.05816 -0.0624181
0.439325 1.06317 -0.0626834
0.479804 1.06313 -0.062613
0.368427 1.05836 -0.062313
0.388706 1.0583 -0.0622817
0.408894 1.05824 -0.0623615
0.459569 1.05317 -0.0620918
0.4292 1.0582 -0.0622852
0.469683 1.05815 -0.062319
0.489903 1.05814 -0.0622636
0.358289 1.05342 -0.0618144
0.378614 1.05335 -0.061985
0.398809 1.05328 -0.0619777
0.419037 1.05324 -0.0619955
0.449451 1.0482 -0.0617361
0.439334 1.0532 -0.062004
0.47978 1.05316 -0.0619327
0.500003 1.07309 -0.0633381
0.368493 1.0484 -0.0616568
0.388756 1.04833 -0.0616068
0.408924 1.04828 -0.0616845
0.459558 1.0432 -0.0614039
0.429215 1.04824 -0.0616026
0.469665 1.04818 -0.0616331
0.489871 1.04817 -0.0615813
0.24492 1.07911 -0.0622498
0.202171 1.07953 -0.0621952
0.22375 1.07932 -0.0621683
0.265878 1.07893 -0.0622405
0.212913 1.08441 -0.0625135
0.23432 1.0842 -0.0625235
0.255337 1.08401 -0.0625739
0.244775 1.08909 -0.0629144
0.201974 1.08951 -0.0627838
0.223593 1.08929 -0.0627688
0.265765 1.08891 -0.0629014
0.244653 1.09906 -0.063547
0.255203 1.09398 -0.0632342
0.223439 1.09927 -0.0633769
0.265664 1.09888 -0.063568
0.212733 1.09438 -0.0631157
0.23418 1.09418 -0.0631353
0.201802 1.09948 -0.0634445
0.201629 1.10946 -0.0640971
0.20145 1.11945 -0.064753
0.201274 1.12943 -0.0654039
0.2011 1.13941 -0.0660447
0.200936 1.14939 -0.0666661
0.255087 1.10395 -0.0639019
0.212563 1.10436 -0.0637552
0.23404 1.10415 -0.0637612
0.244525 1.10903 -0.0642014
0.265545 1.10885 -0.0642405
0.223279 1.10924 -0.0640079
0.254967 1.11393 -0.0645762
0.21238 1.11433 -0.0643579
0.233904 1.11413 -0.0643864
0.244396 1.11901 -0.0648372
0.265433 1.11883 -0.0649056
0.223116 1.11921 -0.0646015
0.25484 1.1239 -0.0652426
0.212196 1.12431 -0.0649308
0.23376 1.1241 -0.0650062
0.222968 1.12919 -0.0652008
0.244287 1.12899 -0.065471
0.265337 1.1288 -0.0655697
0.212015 1.13428 -0.0655316
0.233626 1.13407 -0.065626
0.254734 1.13388 -0.0659076
0.244156 1.13896 -0.0661109
0.265225 1.13877 -0.0662349
0.222824 1.13917 -0.065837
0.21186 1.14427 -0.0661686
0.254613 1.14385 -0.0665492
0.233501 1.14405 -0.0662514
0.22266 1.14914 -0.066446
0.24404 1.14894 -0.066745
0.265124 1.14875 -0.06689
0.327482 1.07849 -0.0632147
0.347932 1.07839 -0.063294
0.286521 1.07876 -0.0626554
0.307047 1.07862 -0.0628978
0.347895 1.08836 -0.063947
0.317225 1.08354 -0.063382
0.337689 1.08343 -0.0636035
0.296754 1.08368 -0.0630925
0.276191 1.08383 -0.0626652
0.317172 1.09351 -0.0640344
0.337643 1.0934 -0.064279
0.327425 1.08846 -0.0638856
0.29668 1.09365 -0.0637546
0.276099 1.09381 -0.0633181
0.306976 1.08859 -0.0635522
0.286412 1.08873 -0.0633009
0.327376 1.09844 -0.0645409
0.347852 1.09834 -0.0646156
0.306906 1.09857 -0.064213
0.286345 1.09871 -0.0639354
0.275724 1.1337 -0.0659988
0.27562 1.14368 -0.0666475
0.317116 1.10348 -0.0646944
0.337594 1.10336 -0.064962
0.296597 1.10362 -0.0644263
0.275996 1.10378 -0.0639927
0.275901 1.11375 -0.0646626
0.275798 1.12373 -0.0653326
0.327322 1.1084 -0.0652062
0.347811 1.1083 -0.0652891
0.306836 1.10853 -0.0648818
0.286255 1.10868 -0.0645812
0.337543 1.11334 -0.0656382
0.296513 1.11359 -0.0650948
0.317052 1.11345 -0.0653597
0.347767 1.11827 -0.0659642
0.306763 1.11851 -0.065554
0.327266 1.11838 -0.0658777
0.286162 1.11865 -0.0652286
0.316993 1.12343 -0.0660214
0.337488 1.12331 -0.0663352
0.29643 1.12357 -0.0657753
0.327212 1.12835 -0.0665336
0.347723 1.12825 -0.0666465
0.286071 1.12863 -0.065868
0.306694 1.12848 -0.0662234
0.337441 1.13328 -0.067014
0.296347 1.13354 -0.0664484
0.316935 1.1334 -0.0666926
0.347686 1.13822 -0.0673223
0.306625 1.13845 -0.0668863
0.327162 1.13832 -0.0671991
0.28599 1.1386 -0.0665213
0.327117 1.14829 -0.0678439
0.347647 1.14819 -0.0679867
0.285902 1.14858 -0.0671721
0.316877 1.14337 -0.0673383
0.337394 1.14325 -0.0676773
0.306567 1.14843 -0.0675396
0.296269 1.14351 -0.0670946
0.337352 1.15322 -0.0683424
0.211703 1.15425 -0.066826
0.254503 1.15383 -0.0672047
0.233374 1.15403 -0.066885
0.200776 1.15938 -0.0673075
0.265017 1.15872 -0.0675426
0.222523 1.15912 -0.0670688
0.24393 1.15892 -0.0673827
0.211568 1.16423 -0.0674769
0.233237 1.164 -0.0674798
0.254397 1.1638 -0.067846
0.264924 1.1687 -0.0681803
0.200632 1.16936 -0.067934
0.20046 1.17934 -0.0685798
0.200319 1.18932 -0.0692004
0.20019 1.19931 -0.0697818
0.200057 1.20929 -0.0703666
0.199925 1.21927 -0.0709531
0.243813 1.16889 -0.0679637
0.222376 1.1691 -0.0676874
0.254284 1.17378 -0.0684746
0.233114 1.17398 -0.0681029
0.211431 1.17421 -0.0681191
0.264813 1.17868 -0.0688265
0.22221 1.17907 -0.0682821
0.243694 1.17887 -0.0686
0.211298 1.18419 -0.0687526
0.232968 1.18396 -0.0687099
0.254184 1.18376 -0.0691158
0.243573 1.18884 -0.069211
0.264719 1.18865 -0.0694681
0.222085 1.18905 -0.0688717
0.211186 1.19417 -0.0693571
0.254067 1.19373 -0.0697349
0.232858 1.19393 -0.0693177
0.264623 1.19862 -0.0700855
0.221939 1.19903 -0.0694542
0.243479 1.19882 -0.069826
0.211065 1.20415 -0.0699702
0.253977 1.20371 -0.0703486
0.23272 1.20391 -0.0699251
0.221831 1.20901 -0.0700807
0.243358 1.20879 -0.0704316
0.264536 1.2086 -0.0707082
0.210966 1.21413 -0.0705805
0.253868 1.21368 -0.070959
0.232608 1.21388 -0.0705353
0.210838 1.22412 -0.071194
0.221726 1.21899 -0.0707165
0.243257 1.21877 -0.0710567
0.264454 1.21858 -0.0713241
0.253776 1.22366 -0.0715589
0.232493 1.22386 -0.0711542
0.221609 1.22897 -0.0713617
0.264349 1.22855 -0.0719372
0.243123 1.22874 -0.0716727
0.27553 1.15365 -0.0673101
0.296187 1.15348 -0.0677442
0.316821 1.15335 -0.0680021
0.306501 1.1584 -0.068194
0.327068 1.15827 -0.0685126
0.347614 1.15816 -0.0686689
0.275446 1.16363 -0.0679597
0.285815 1.15855 -0.0678397
0.316762 1.16332 -0.0686651
0.337304 1.1632 -0.0690203
0.29611 1.16346 -0.0684036
0.285733 1.16853 -0.0684969
0.327005 1.16824 -0.0691735
0.34757 1.16813 -0.0693358
0.306426 1.16837 -0.068843
0.275344 1.1736 -0.0686024
0.33725 1.17317 -0.0696793
0.296023 1.17343 -0.0690347
0.316691 1.17329 -0.0693271
0.275265 1.18358 -0.0692501
0.275172 1.19355 -0.0698876
0.275092 1.20353 -0.0705253
0.275002 1.2135 -0.0711597
0.274923 1.22348 -0.0717831
0.28564 1.1785 -0.0691596
[...]
POINT_DATA 24341
VECTORS alpha float
-3.07739e-07 1.99586e-05 -1.25382e-06
5.79863e-07 -5.69143e-09 3.30852e-08
-3.81549e-07 2.01615e-05 -1.25567e-06
-3.0137e-07 1.99696e-05 -1.27163e-06
5.91817e-07 -5.84553e-09 3.40431e-08
-2.8868e-07 1.99472e-05 -1.24227e-06
-3.66958e-07 2.015e-05 -1.24638e-06
6.06467e-07 -6.02149e-09 3.53973e-08
-2.92354e-07 1.99361e-05 -1.25864e-06
-3.86221e-07 2.01391e-05 -1.25872e-06
-3.11847e-07 1.99255e-05 -1.25299e-06
6.113e-07 -6.09204e-09 3.59801e-08
-3.93417e-07 2.01275e-05 -1.26333e-06
6.28162e-07 -6.29618e-09 3.77171e-08
6.0972e-07 -6.24508e-09 1.85173e-08
-3.14593e-07 1.99138e-05 -1.24768e-06
-3.98849e-07 2.01159e-05 -1.28466e-06
6.42009e-07 -6.46435e-09 3.87316e-08
6.23212e-07 -6.41355e-09 1.93389e-08
-4.07422e-07 2.01041e-05 -1.28853e-06
-3.18565e-07 1.99019e-05 -1.25626e-06
6.48129e-07 -6.56088e-09 3.91851e-08
6.29195e-07 -6.5095e-09 1.97775e-08
-4.0617e-07 2.0092e-05 -1.2915e-06
-3.15451e-07 1.98893e-05 -1.24815e-06
6.59328e-07 -6.72601e-09 3.94389e-08
6.40681e-07 -6.66259e-09 2.03594e-08
-4.01357e-07 2.00787e-05 -1.26798e-06
-3.22521e-07 1.98773e-05 -1.25598e-06
6.70946e-07 -6.89268e-09 3.96372e-08
6.52212e-07 -6.82892e-09 2.00582e-08
-4.08216e-07 1.90792e-05 -1.16129e-06
-4.10267e-07 1.90916e-05 -1.17495e-06
-4.3313e-07 1.91043e-05 -1.1962e-06
6.19938e-07 -6.26729e-09 -2.43949e-08
5.93325e-07 -6.04367e-09 1.79152e-08
-4.39987e-07 1.91168e-05 -1.2188e-06
6.08781e-07 -6.11443e-09 -2.30469e-08
5.87996e-07 -5.95861e-09 1.69541e-08
-4.47659e-07 1.91279e-05 -1.19351e-06
5.97587e-07 -5.96503e-09 -2.24007e-08
5.73244e-07 -5.78936e-09 1.60559e-08
6.56839e-07 -6.31477e-09 -1.07963e-07
-3.95924e-07 2.00653e-05 -1.23978e-06
-3.24837e-07 1.98657e-05 -1.26613e-06
-4.19596e-07 1.90666e-05 -1.12204e-06
6.85918e-07 -7.06092e-09 3.95635e-08
6.66985e-07 -7.00481e-09 1.93887e-08
6.33717e-07 -6.44079e-09 -2.57036e-08
-4.56772e-07 1.70956e-05 -9.42378e-07
-3.26169e-07 1.98523e-05 -1.26137e-06
-3.93533e-07 2.00511e-05 -1.24362e-06
-4.26769e-07 1.90538e-05 -1.13917e-06
-4.31324e-07 1.71341e-05 -9.45512e-07
-4.27633e-07 1.71217e-05 -9.09606e-07
-4.39362e-07 1.71087e-05 -9.09331e-07
-4.11437e-07 1.71457e-05 -9.34968e-07
-4.31622e-07 1.71579e-05 -9.68145e-07
6.46315e-07 -6.6068e-09 -2.70877e-08
7.00168e-07 -7.2216e-09 4.08012e-08
6.8067e-07 -7.16609e-09 1.79432e-08
-3.81265e-07 2.00373e-05 -1.22193e-06
-3.21296e-07 1.98397e-05 -1.24654e-06
-4.1091e-07 1.90414e-05 -1.09926e-06
6.65676e-07 -6.82758e-09 -2.8669e-08
7.19886e-07 -7.44968e-09 4.09565e-08
7.00224e-07 -7.38866e-09 1.6926e-08
-3.56485e-07 2.00234e-05 -1.18707e-06
-3.03325e-07 1.98261e-05 -1.24274e-06
-3.92708e-07 1.90276e-05 -1.08586e-06
6.78473e-07 -6.99725e-09 -3.05378e-08
7.34199e-07 -7.6383e-09 4.12913e-08
-3.67927e-07 2.00104e-05 -1.20295e-06
-3.0942e-07 1.98132e-05 -1.23827e-06
7.14733e-07 -7.57722e-09 1.6569e-08
-3.98141e-07 1.90141e-05 -1.09993e-06
7.48412e-07 -7.8222e-09 3.97405e-08
7.28312e-07 -7.76483e-09 1.50396e-08
6.90412e-07 -7.15078e-09 -3.3188e-08
-3.92855e-07 1.90008e-05 -1.08868e-06
-3.53243e-07 1.99962e-05 -1.20117e-06
-3.05645e-07 1.98e-05 -1.24629e-06
7.05617e-07 -7.35736e-09 -3.68263e-08
7.17659e-07 -7.51491e-09 -3.99229e-08
7.66244e-07 -8.0502e-09 3.90492e-08
7.45332e-07 -7.9916e-09 1.10711e-08
-3.79641e-07 1.89864e-05 -1.08894e-06
-3.05041e-07 1.97861e-05 -1.22648e-06
-3.46719e-07 1.99811e-05 -1.19517e-06
7.80385e-07 -8.23566e-09 3.77727e-08
7.59646e-07 -8.1841e-09 9.63584e-09
-3.91098e-07 1.89732e-05 -1.08688e-06
-3.02366e-07 1.97711e-05 -1.21578e-06
-3.40185e-07 1.99661e-05 -1.18776e-06
-4.50283e-07 1.71698e-05 -9.80828e-07
-4.00846e-08 9.95326e-06 -6.75335e-07
-3.55319e-08 8.67987e-06 -6.0198e-07
6.49557e-07 -2.70233e-09 1.15906e-08
6.57975e-07 -2.28803e-09 1.05011e-08
-4.963e-08 1.14092e-05 -7.77614e-07
-7.32199e-08 1.30931e-05 -8.81848e-07
-4.00763e-08 9.95919e-06 -6.79861e-07
-3.41759e-08 8.68514e-06 -6.05375e-07
6.2884e-07 -3.66633e-09 9.72469e-09
6.38654e-07 -3.16227e-09 9.62203e-09
5.92067e-07 -5.48541e-09 3.56525e-08
-2.16636e-07 1.87566e-05 -1.19633e-06
-1.45128e-07 1.6967e-05 -1.07909e-06
-1.10225e-07 1.49883e-05 -1.00066e-06
6.39598e-07 -2.64082e-09 1.12826e-08
6.48032e-07 -2.23942e-09 9.88611e-09
-4.97875e-08 1.14158e-05 -7.83176e-07
5.99869e-07 -5.10122e-09 2.91951e-08
6.09945e-07 -4.6857e-09 2.09498e-08
6.20814e-07 -4.2516e-09 1.42281e-08
-7.2834e-08 1.31006e-05 -8.78609e-07
-3.66083e-08 9.96506e-06 -6.79153e-07
-3.03051e-08 8.69033e-06 -6.03242e-07
6.18717e-07 -3.57636e-09 9.2574e-09
6.28668e-07 -3.0896e-09 9.21333e-09
-1.31953e-08 7.52519e-06 -5.19011e-07
-8.73335e-09 6.43052e-06 -4.50001e-07
-6.71952e-09 5.35869e-06 -3.73996e-07
-8.82695e-09 4.29054e-06 -3.0163e-07
-2.01458e-09 3.21995e-06 -2.25549e-07
-2.50774e-09 2.14693e-06 -1.50535e-07
-3.17098e-10 1.07336e-06 -7.49859e-08
6.63636e-07 -1.79275e-09 9.91692e-09
6.6946e-07 -1.42349e-09 8.42541e-09
6.75944e-07 -1.19852e-09 7.66593e-09
-2.30781e-09 2.14831e-06 -1.50999e-07
6.80511e-07 -1.0282e-09 4.2228e-09
6.84584e-07 -4.911e-10 7.77318e-09
6.86981e-07 -3.40531e-10 5.42993e-09
6.87709e-07 -2.86752e-10 -1.45799e-09
-1.23973e-08 7.52979e-06 -5.22e-07
-8.75785e-09 6.43441e-06 -4.51841e-07
-6.57184e-09 5.36196e-06 -3.75005e-07
-8.31132e-09 4.29316e-06 -3.02766e-07
6.74524e-07 -4.7346e-10 7.71097e-09
-1.87295e-09 3.22193e-06 -2.26417e-07
-1.2682e-10 1.07403e-06 -7.51974e-08
6.53259e-07 -1.73987e-09 9.90621e-09
6.59114e-07 -1.38318e-09 8.2393e-09
6.65623e-07 -1.16998e-09 7.54129e-09
-1.9754e-09 2.14965e-06 -1.50308e-07
6.70164e-07 -9.96808e-10 4.15946e-09
6.76667e-07 -3.39433e-10 5.24382e-09
6.77434e-07 -2.94278e-10 -1.53972e-09
-9.41019e-09 7.5343e-06 -5.20669e-07
-7.42534e-09 6.43829e-06 -4.4997e-07
-5.57955e-09 5.36521e-06 -3.73393e-07
-7.31423e-09 4.29577e-06 -3.01607e-07
6.60303e-07 -4.59044e-10 7.61145e-09
-1.40932e-09 3.22391e-06 -2.25611e-07
4.67026e-11 1.07471e-06 -7.48241e-08
1.36046e-14 -5.86005e-12 4.08133e-13
6.39827e-07 -1.68067e-09 9.85056e-09
6.45432e-07 -1.34253e-09 8.05442e-09
6.51726e-07 -1.13962e-09 7.39985e-09
-1.78253e-09 2.15094e-06 -1.50054e-07
6.56059e-07 -9.65867e-10 4.07205e-09
6.62346e-07 -3.3585e-10 5.00768e-09
6.63109e-07 -2.98372e-10 -1.61765e-09
6.22965e-07 -4.79881e-09 2.12252e-08
6.0431e-07 -5.63203e-09 3.63984e-08
6.12152e-07 -5.22531e-09 2.96742e-08
6.34485e-07 -4.36486e-09 1.47313e-08
-2.07637e-07 1.87462e-05 -1.20705e-06
-1.32809e-07 1.6957e-05 -1.0746e-06
-1.03466e-07 1.49793e-05 -1.00109e-06
6.35989e-07 -4.91936e-09 2.1651e-08
6.19124e-07 -5.80676e-09 3.62528e-08
6.25746e-07 -5.36975e-09 2.99256e-08
6.46586e-07 -4.46691e-09 1.51586e-08
6.40551e-07 -4.9846e-09 2.13525e-08
-1.08064e-07 1.49706e-05 -1.01016e-06
6.30398e-07 -5.43661e-09 2.96759e-08
6.51379e-07 -4.527e-09 1.52343e-08
-2.16893e-07 1.87356e-05 -1.21032e-06
-1.37587e-07 1.69473e-05 -1.08499e-06
6.24095e-07 -5.85468e-09 3.59046e-08
6.40875e-07 -6.0425e-09 3.73334e-08
6.55083e-07 -6.20623e-09 3.88066e-08
6.62057e-07 -6.30831e-09 3.96302e-08
6.73559e-07 -6.46513e-09 4.08077e-08
6.84794e-07 -6.62457e-09 4.07918e-08
-1.09299e-07 1.49616e-05 -1.00938e-06
-2.19308e-07 1.87249e-05 -1.19185e-06
-1.39166e-07 1.69378e-05 -1.08452e-06
6.57473e-07 -5.12445e-09 2.20363e-08
6.68355e-07 -4.65025e-09 1.59935e-08
6.47505e-07 -5.59304e-09 3.04302e-08
-1.10607e-07 1.49523e-05 -1.01052e-06
-2.20469e-07 1.87139e-05 -1.19575e-06
-1.40093e-07 1.69282e-05 -1.0833e-06
6.7223e-07 -5.26769e-09 2.24412e-08
6.83434e-07 -4.77942e-09 1.66581e-08
6.62418e-07 -5.74653e-09 3.07183e-08
-1.14931e-07 1.49428e-05 -1.01288e-06
-2.25928e-07 1.87028e-05 -1.19402e-06
-1.42382e-07 1.69182e-05 -1.08585e-06
6.69479e-07 -5.83915e-09 3.03457e-08
6.78754e-07 -5.35668e-09 2.26024e-08
6.89558e-07 -4.85625e-09 1.695e-08
-2.22888e-07 1.86917e-05 -1.19508e-06
-1.41777e-07 1.69075e-05 -1.09119e-06
-1.09664e-07 1.49329e-05 -1.00615e-06
6.90238e-07 -5.47287e-09 2.27954e-08
7.01118e-07 -4.96038e-09 1.7471e-08
6.81172e-07 -5.97592e-09 3.08809e-08
-2.25919e-07 1.86803e-05 -1.21045e-06
-1.11993e-07 1.49238e-05 -1.00162e-06
-1.4266e-07 1.68965e-05 -1.10172e-06
6.93273e-07 -6.12882e-09 3.04714e-08
7.02167e-07 -5.61026e-09 2.30266e-08
7.13126e-07 -5.08162e-09 1.78081e-08
6.6604e-07 -2.77691e-09 1.20886e-08
6.75036e-07 -2.35221e-09 1.12343e-08
6.43879e-07 -3.77485e-09 1.02159e-08
6.5437e-07 -3.25001e-09 1.01151e-08
6.84622e-07 -2.39817e-09 1.1692e-08
-3.74185e-08 9.94683e-06 -6.79793e-07
-3.44627e-08 8.67427e-06 -6.05096e-07
-4.69005e-08 1.1402e-05 -7.81843e-07
-6.73122e-08 1.30853e-05 -8.88587e-07
-3.81621e-08 9.94066e-06 -6.80644e-07
-3.59598e-08 8.66878e-06 -6.05977e-07
6.76302e-07 -2.82759e-09 1.23743e-08
-4.95287e-08 1.13949e-05 -7.85348e-07
-6.92534e-08 1.30774e-05 -8.91608e-07
6.6525e-07 -3.32162e-09 1.01251e-08
6.5564e-07 -3.86163e-09 1.04962e-08
6.8221e-07 -2.86765e-09 1.27919e-08
6.90872e-07 -2.42794e-09 1.21917e-08
6.70912e-07 -3.36759e-09 1.05611e-08
6.60811e-07 -3.9312e-09 1.06476e-08
-6.75707e-08 1.3043e-05 -8.96354e-07
-6.97773e-08 1.30348e-05 -8.90157e-07
-3.56086e-08 9.93421e-06 -6.81687e-07
-3.46644e-08 8.66309e-06 -6.06536e-07
-4.72303e-08 1.13875e-05 -7.86701e-07
-6.71915e-08 1.30693e-05 -8.9412e-07
-6.75634e-08 1.30608e-05 -8.96627e-07
-7.09032e-08 1.3052e-05 -8.99966e-07
6.99774e-07 -2.95022e-09 1.3402e-08
7.08552e-07 -2.49486e-09 1.29429e-08
6.88418e-07 -3.46727e-09 1.11432e-08
6.78291e-07 -4.0584e-09 1.11334e-08
-3.43258e-08 8.65749e-06 -6.05445e-07
-4.84901e-08 1.13803e-05 -7.89654e-07
-3.44406e-08 9.92767e-06 -6.83688e-07
7.25259e-07 -2.56083e-09 1.37295e-08
7.04534e-07 -3.55959e-09 1.17376e-08
7.1608e-07 -3.03841e-09 1.39498e-08
6.94162e-07 -4.17886e-09 1.16506e-08
-3.56941e-08 9.92085e-06 -6.88008e-07
-3.47071e-08 8.65127e-06 -6.08997e-07
-4.95273e-08 1.13724e-05 -7.93434e-07
7.21587e-07 -3.07925e-09 1.41528e-08
7.30738e-07 -2.60431e-09 1.4041e-08
7.00334e-07 -4.2499e-09 1.15725e-08
7.10141e-07 -3.61409e-09 1.18267e-08
-3.34264e-08 8.64523e-06 -6.08525e-07
-4.56113e-08 1.13647e-05 -7.85332e-07
-3.25733e-08 9.9138e-06 -6.8904e-07
7.43014e-07 -2.65905e-09 1.46126e-08
7.22216e-07 -3.69743e-09 1.2128e-08
7.33601e-07 -3.15296e-09 1.4438e-08
7.12151e-07 -4.35116e-09 1.1827e-08
7.46133e-07 -3.23256e-09 1.47017e-08
7.5557e-07 -2.73216e-09 1.49388e-08
7.24477e-07 -4.46085e-09 1.2148e-08
-3.27838e-08 9.90741e-06 -6.86085e-07
-3.22872e-08 8.6393e-06 -6.05477e-07
7.34529e-07 -3.79871e-09 1.22703e-08
-4.46147e-08 1.13573e-05 -7.80948e-07
-3.55856e-08 8.63321e-06 -6.04078e-07
-2.30419e-07 1.86694e-05 -1.21909e-06
-1.14451e-07 1.49141e-05 -1.00155e-06
-1.43625e-07 1.68858e-05 -1.09809e-06
6.99721e-07 -6.79636e-09 4.15048e-08
7.28496e-07 -5.21459e-09 1.79065e-08
7.0841e-07 -6.30775e-09 3.07233e-08
7.17262e-07 -5.76663e-09 2.32819e-08
-2.22358e-07 1.86566e-05 -1.22287e-06
-1.38708e-07 1.68747e-05 -1.09985e-06
-1.07943e-07 1.49036e-05 -9.98366e-07
7.42119e-07 -5.3504e-09 1.79698e-08
7.13265e-07 -6.95651e-09 4.16696e-08
7.32266e-07 -7.17495e-09 4.24471e-08
7.46596e-07 -7.35239e-09 4.19882e-08
7.617e-07 -7.56288e-09 4.21884e-08
7.79562e-07 -7.79206e-09 4.09486e-08
7.94746e-07 -7.99609e-09 4.09919e-08
7.31373e-07 -5.91527e-09 2.29802e-08
7.22205e-07 -6.46742e-09 3.10894e-08
-1.03935e-07 1.48939e-05 -9.87683e-07
-1.3558e-07 1.68637e-05 -1.09527e-06
-2.15558e-07 1.86449e-05 -1.21128e-06
7.59602e-07 -5.509e-09 1.80553e-08
7.41067e-07 -6.68261e-09 3.1041e-08
7.49147e-07 -6.09525e-09 2.32389e-08
-2.00087e-07 1.86324e-05 -1.20031e-06
-1.32434e-07 1.6853e-05 -1.09063e-06
-9.65152e-08 1.48834e-05 -9.7921e-07
7.63916e-07 -6.25291e-09 2.28341e-08
7.74242e-07 -5.65059e-09 1.81018e-08
7.55795e-07 -6.87016e-09 3.09721e-08
-1.98403e-07 1.86203e-05 -1.18765e-06
-9.99914e-08 1.48735e-05 -9.80899e-07
-1.28141e-07 1.68413e-05 -1.091e-06
7.90517e-07 -5.8132e-09 1.7767e-08
7.71989e-07 -7.07068e-09 3.04917e-08
7.80081e-07 -6.43508e-09 2.28179e-08
-2.011e-07 1.86075e-05 -1.19543e-06
-1.01268e-07 1.48631e-05 -9.74138e-07
-1.33331e-07 1.68302e-05 -1.09927e-06
7.90131e-07 -7.30168e-09 3.03406e-08
7.98864e-07 -6.64035e-09 2.2314e-08
8.09051e-07 -5.99728e-09 1.7436e-08
-2.11563e-07 1.85946e-05 -1.17871e-06
-9.94276e-08 1.48522e-05 -9.69983e-07
-1.28867e-07 1.68176e-05 -1.09241e-06
-2.06619e-07 1.85805e-05 -1.1748e-06
8.0472e-07 -7.47858e-09 2.98475e-08
8.14519e-07 -6.81274e-09 2.24317e-08
8.2434e-07 -6.15433e-09 1.71262e-08
-9.72961e-08 1.4841e-05 -9.65454e-07
-1.3362e-07 1.68053e-05 -1.09021e-06
8.1927e-07 -7.66206e-09 2.94984e-08
8.40047e-07 -6.31297e-09 1.68591e-08
8.30381e-07 -6.97923e-09 2.21702e-08
-7.30119e-08 1.30259e-05 -8.8971e-07
-4.91729e-08 1.13497e-05 -7.79073e-07
-3.45361e-08 9.90033e-06 -6.85627e-07
7.50628e-07 -3.91003e-09 1.2151e-08
7.62299e-07 -3.33311e-09 1.47337e-08
7.72016e-07 -2.81922e-09 1.5122e-08
-6.90298e-08 1.30163e-05 -8.89524e-07
7.40032e-07 -4.58048e-09 1.21782e-08
-3.32347e-08 9.89309e-06 -6.85621e-07
-3.22749e-08 8.62653e-06 -6.02925e-07
-4.45186e-08 1.13412e-05 -7.78513e-07
7.53721e-07 -4.69228e-09 1.23755e-08
7.76636e-07 -3.41616e-09 1.47766e-08
7.86439e-07 -2.88766e-09 1.53948e-08
7.6467e-07 -4.0203e-09 1.20877e-08
-6.59786e-08 1.30074e-05 -8.77996e-07
-3.20927e-08 8.62029e-06 -5.99568e-07
-4.08438e-08 1.13332e-05 -7.70555e-07
-2.96904e-08 9.88585e-06 -6.8047e-07
-6.07341e-08 1.2998e-05 -8.71908e-07
-6.50491e-08 1.29888e-05 -8.74609e-07
-6.73981e-08 1.29792e-05 -8.68961e-07
-6.62837e-08 1.29694e-05 -8.63233e-07
-6.57908e-08 1.29589e-05 -8.57859e-07
7.70708e-07 -4.82253e-09 1.27209e-08
7.81792e-07 -4.14414e-09 1.199e-08
7.93403e-07 -3.52285e-09 1.49035e-08
8.03097e-07 -2.97584e-09 1.56692e-08
-2.76267e-08 9.87858e-06 -6.75388e-07
-2.88529e-08 8.61368e-06 -5.93543e-07
-3.62217e-08 1.13249e-05 -7.67523e-07
7.85448e-07 -4.93839e-09 1.29444e-08
8.08722e-07 -3.62198e-09 1.4734e-08
8.18418e-07 -3.05067e-09 1.56846e-08
7.96831e-07 -4.26286e-09 1.17081e-08
-2.9953e-08 8.60721e-06 -5.90316e-07
-2.73281e-08 9.87096e-06 -6.74064e-07
-3.70079e-08 1.13163e-05 -7.71071e-07
8.02089e-07 -5.09117e-09 1.31722e-08
8.36299e-07 -3.15916e-09 1.55611e-08
8.26452e-07 -3.74232e-09 1.4693e-08
8.14145e-07 -4.39933e-09 1.15242e-08
-3.1631e-08 8.60072e-06 -5.87146e-07
-4.08216e-08 1.13084e-05 -7.70386e-07
-2.88798e-08 9.86365e-06 -6.71727e-07
8.20876e-07 -5.24882e-09 1.28985e-08
8.45721e-07 -3.86655e-09 1.45244e-08
8.55713e-07 -3.25375e-09 1.54624e-08
8.33261e-07 -4.55189e-09 1.09205e-08
-3.12691e-08 8.5938e-06 -5.8418e-07
-2.81019e-08 9.85581e-06 -6.68919e-07
-3.67841e-08 1.12992e-05 -7.68332e-07
8.36381e-07 -5.38889e-09 1.28321e-08
8.61908e-07 -3.98536e-09 1.4303e-08
8.72088e-07 -3.35821e-09 1.52229e-08
8.49155e-07 -4.69439e-09 1.03529e-08
-3.16952e-08 8.58655e-06 -5.85321e-07
-3.81642e-08 1.12904e-05 -7.69574e-07
-2.76433e-08 9.84762e-06 -6.69545e-07
8.52239e-07 -5.5218e-09 1.2892e-08
8.88789e-07 -3.4537e-09 1.51184e-08
8.65575e-07 -4.83009e-09 1.00912e-08
8.78271e-07 -4.10474e-09 1.41928e-08
6.81477e-07 -1.85631e-09 1.01521e-08
6.87506e-07 -1.47198e-09 8.74726e-09
6.94045e-07 -1.2338e-09 7.84798e-09
6.91053e-07 -1.90163e-09 1.01628e-08
6.96763e-07 -1.50579e-09 9.01787e-09
7.02997e-07 -1.25846e-09 7.97517e-09
-1.19796e-08 7.52037e-06 -5.20518e-07
-7.619e-09 6.42643e-06 -4.50032e-07
-5.3205e-09 5.35531e-06 -3.7289e-07
-8.25043e-09 4.28784e-06 -3.01552e-07
-1.28752e-08 7.51555e-06 -5.22338e-07
-7.46632e-09 6.42238e-06 -4.5242e-07
-5.17846e-09 5.35198e-06 -3.73078e-07
-8.54886e-09 4.28519e-06 -3.02071e-07
6.97911e-07 -1.93639e-09 1.01733e-08
7.03906e-07 -1.53066e-09 9.16997e-09
7.10331e-07 -1.27879e-09 8.03691e-09
-6.62281e-09 6.41815e-06 -4.52326e-07
-4.56521e-09 5.34847e-06 -3.7274e-07
-8.17076e-09 4.28239e-06 -3.01815e-07
-1.14818e-08 7.51044e-06 -5.23555e-07
7.1596e-07 -2.00116e-09 1.03556e-08
7.28442e-07 -1.31706e-09 8.16265e-09
7.22e-07 -1.57798e-09 9.4173e-09
-5.50439e-09 6.41403e-06 -4.51242e-07
-8.17747e-09 4.27964e-06 -3.01903e-07
-1.17484e-08 7.50552e-06 -5.22487e-07
-3.73457e-09 5.34491e-06 -3.72711e-07
7.32903e-07 -2.0591e-09 1.07185e-08
7.39165e-07 -1.62553e-09 9.85184e-09
7.45758e-07 -1.36025e-09 8.42964e-09
-1.25148e-08 7.50022e-06 -5.25732e-07
-4.4563e-09 6.40949e-06 -4.52317e-07
-3.43796e-09 5.34121e-06 -3.73901e-07
-8.1424e-09 4.27661e-06 -3.03169e-07
7.5192e-07 -1.37856e-09 8.36568e-09
7.3873e-07 -2.09354e-09 1.05556e-08
7.45173e-07 -1.65232e-09 9.86267e-09
-3.09304e-09 6.40496e-06 -4.50486e-07
-1.07961e-08 7.49473e-06 -5.25835e-07
-2.06807e-09 5.33731e-06 -3.73361e-07
-7.52296e-09 4.27344e-06 -3.02286e-07
-1.21252e-08 7.48948e-06 -5.23626e-07
-2.55793e-09 6.40055e-06 -4.47812e-07
-2.26625e-09 5.33371e-06 -3.72186e-07
-7.86318e-09 4.27054e-06 -3.0139e-07
7.50981e-07 -2.13972e-09 1.0769e-08
7.57515e-07 -1.68884e-09 1.01144e-08
7.64329e-07 -1.4143e-09 8.42656e-09
7.63602e-07 -2.19688e-09 1.08625e-08
7.7021e-07 -1.73383e-09 1.00894e-08
7.77104e-07 -1.45058e-09 8.41005e-09
-1.35521e-08 7.48399e-06 -5.22657e-07
-1.57346e-09 6.39571e-06 -4.48253e-07
-1.86139e-09 5.32967e-06 -3.73161e-07
-7.6414e-09 4.26731e-06 -3.01458e-07
6.98713e-07 -1.06498e-09 4.3802e-09
7.02712e-07 -5.09648e-10 7.86903e-09
7.05054e-07 -3.46507e-10 5.62461e-09
7.05699e-07 -2.84902e-10 -1.48432e-09
7.0759e-07 -1.09379e-09 4.50573e-09
7.11452e-07 -5.22632e-10 7.87589e-09
7.13719e-07 -3.49403e-10 5.769e-09
7.14285e-07 -2.8063e-10 -1.47014e-09
-1.56286e-09 3.21793e-06 -2.2535e-07
-2.41126e-09 2.14559e-06 -1.50327e-07
-2.93766e-10 1.07269e-06 -7.48752e-08
-1.55174e-09 3.21595e-06 -2.25653e-07
-2.46809e-09 2.14427e-06 -1.50592e-07
-3.6727e-10 1.07203e-06 -7.50118e-08
7.15252e-07 -1.11957e-09 4.58493e-09
7.19207e-07 -5.36451e-10 7.90227e-09
7.21575e-07 -3.55133e-10 5.93042e-09
7.22149e-07 -2.8055e-10 -1.43867e-09
-1.22522e-09 3.21386e-06 -2.25437e-07
-2.36384e-09 2.14288e-06 -1.50414e-07
-3.52615e-10 1.07133e-06 -7.49416e-08
7.33512e-07 -1.15752e-09 4.76274e-09
7.3745e-07 -5.62393e-10 7.8413e-09
7.39855e-07 -3.63933e-10 6.1607e-09
7.40387e-07 -2.82673e-10 -1.45986e-09
-2.37574e-09 2.14152e-06 -1.50359e-07
-7.89006e-10 3.21173e-06 -2.25811e-07
-3.79956e-10 1.07062e-06 -7.4945e-08
7.51103e-07 -1.1954e-09 5.13503e-09
7.55128e-07 -5.85614e-10 8.0444e-09
7.57614e-07 -3.79372e-10 6.40131e-09
7.58146e-07 -2.94814e-10 -1.53659e-09
-7.29492e-10 3.20952e-06 -2.26997e-07
-2.22579e-09 2.14e-06 -1.51059e-07
-4.23798e-10 1.06989e-06 -7.53056e-08
7.61742e-07 -5.94745e-10 8.02253e-09
7.64356e-07 -3.80725e-10 6.49225e-09
7.57278e-07 -1.21296e-09 5.35561e-09
7.64662e-07 -2.99384e-10 -1.67375e-09
-2.19174e-09 2.13846e-06 -1.5053e-07
-1.76844e-10 3.20713e-06 -2.26558e-07
-3.92405e-10 1.0691e-06 -7.50555e-08
-4.53115e-10 3.20495e-06 -2.25827e-07
-2.39917e-09 2.13696e-06 -1.50095e-07
-6.37135e-10 1.06837e-06 -7.48678e-08
7.70189e-07 -1.24567e-09 5.50021e-09
7.74386e-07 -6.16025e-10 8.06859e-09
7.77056e-07 -3.94162e-10 6.64034e-09
7.77597e-07 -3.00418e-10 -1.74981e-09
7.83167e-07 -1.27474e-09 5.72132e-09
7.87409e-07 -6.35644e-10 8.20632e-09
7.90125e-07 -4.04714e-10 6.77586e-09
7.90665e-07 -3.03937e-10 -1.73773e-09
-1.20924e-10 3.20252e-06 -2.2593e-07
-2.30417e-09 2.13532e-06 -1.50337e-07
-6.74994e-10 1.06755e-06 -7.49856e-08
1.12022e-14 -4.78184e-12 3.33582e-13
5.00919e-15 -2.32645e-12 1.63258e-13
1.44775e-15 -1.91656e-12 1.3412e-13
9.0984e-16 -1.27848e-12 8.93459e-14
7.80363e-07 -2.26202e-09 1.073e-08
7.8707e-07 -1.78407e-09 9.9743e-09
7.94087e-07 -1.48932e-09 8.35312e-09
-1.18447e-08 7.47809e-06 -5.21379e-07
-2.76586e-10 6.39081e-06 -4.46561e-07
-1.22433e-09 5.32555e-06 -3.73246e-07
-7.15158e-09 4.264e-06 -3.01038e-07
7.94646e-07 -2.32044e-09 1.08508e-08
8.01412e-07 -1.84042e-09 9.83822e-09
8.08513e-07 -1.52968e-09 8.42308e-09
-1.22153e-08 7.47257e-06 -5.18767e-07
1.20161e-09 6.38593e-06 -4.44531e-07
-2.45447e-10 5.32146e-06 -3.72008e-07
-6.81867e-09 4.26067e-06 -3.00104e-07
8.1147e-07 -2.39648e-09 1.06139e-08
8.1809e-07 -1.89755e-09 9.61443e-09
8.25104e-07 -1.57522e-09 8.34241e-09
-1.00343e-08 7.46668e-06 -5.15885e-07
2.63637e-09 6.38108e-06 -4.39694e-07
-6.26339e-09 4.2574e-06 -2.97625e-07
9.76561e-10 5.31725e-06 -3.69406e-07
8.26871e-07 -2.46179e-09 1.05752e-08
8.33486e-07 -1.94987e-09 9.47138e-09
8.40641e-07 -1.62199e-09 8.28037e-09
-1.10659e-08 7.46091e-06 -5.13639e-07