# vtk DataFile Version 3.0
vtk output
ASCII
DATASET POLYDATA
POINTS 1111 float
0.169996 0.0600308 -0.00292149
0.189997 0.0600354 -0.00300707
0.209998 0.0600402 -0.00307063
0.229998 0.0600452 -0.00311846
0.159997 0.0550205 -0.0026976
0.179998 0.0550233 -0.00278773
0.199998 0.0550262 -0.00285373
0.219999 0.0550292 -0.00290232
0.239999 0.0550322 -0.00293844
0.109995 0.0600171 -0.00245393
0.129995 0.0600201 -0.00265334
0.149996 0.0600233 -0.00280715
0.119997 0.0550097 -0.00241608
0.0899959 0.0600119 -0.00220804
0.139997 0.0550188 -0.00257389
0.149998 0.050015 -0.00246171
0.169999 0.0500158 -0.00255713
0.189999 0.0500165 -0.00262663
0.209999 0.0500171 -0.00267716
0.23 0.0500176 -0.00271416
0.099997 0.0550067 -0.0022106
0.109998 0.0500028 -0.00217003
0.139999 0.0450125 -0.00219449
0.159999 0.0450119 -0.00229378
0.18 0.0450109 -0.00236605
0.2 0.0450097 -0.00241809
0.22 0.0450082 -0.00245565
0.24 0.0450064 -0.00248282
0.129998 0.0500158 -0.00233149
0.249999 0.0600386 -0.00315306
0.269999 0.060041 -0.00318652
0.289999 0.0600431 -0.00321536
0.309999 0.060045 -0.00324059
0.329999 0.0600465 -0.00326268
0.349999 0.0600478 -0.00328182
0.37 0.0600487 -0.00329808
0.39 0.0600494 -0.00331152
0.41 0.0600497 -0.00332215
0.43 0.0600497 -0.00333001
0.450001 0.0600494 -0.0033351
0.470001 0.0600488 -0.00333743
0.490001 0.0600479 -0.00333696
0.259999 0.0550338 -0.00296847
0.28 0.0550359 -0.002996
0.3 0.0550376 -0.00301997
0.32 0.0550392 -0.003041
0.34 0.0550404 -0.00305936
0.36 0.0550414 -0.00307512
0.38 0.0550421 -0.00308833
0.4 0.0550425 -0.00309901
0.42 0.0550426 -0.00310719
0.440001 0.0550424 -0.00311287
0.460001 0.0550419 -0.00311607
0.480001 0.0550411 -0.00311677
0.39 0.0500355 -0.00286337
0.41 0.0500357 -0.00287154
0.430001 0.0500356 -0.00287749
0.450001 0.0500352 -0.00288125
0.470001 0.0500345 -0.00288281
0.490002 0.0500335 -0.00288214
0.300001 0.0450259 -0.00254313
0.320001 0.0450272 -0.00255893
0.340001 0.0450282 -0.00257274
0.360001 0.045029 -0.00258461
0.380001 0.0450295 -0.00259454
0.400001 0.0450299 -0.00260252
0.420001 0.04503 -0.00260858
0.440001 0.0450299 -0.00261271
0.460001 0.0450295 -0.00261494
0.480001 0.0450289 -0.00261524
0.25 0.0500267 -0.00274077
0.27 0.0500286 -0.00276659
0.29 0.0500303 -0.00278883
0.31 0.0500319 -0.00280832
0.33 0.0500331 -0.00282541
0.35 0.0500342 -0.00284024
0.370001 0.050035 -0.00285283
0.5 0.0450278 -0.0026135
0.260001 0.0450202 -0.002506
0.280001 0.045022 -0.00252615
0.250001 0.040015 -0.00223747
0.270001 0.0400166 -0.00225567
0.290001 0.0400181 -0.00227135
0.310001 0.0400196 -0.00228512
0.330001 0.040021 -0.00229725
0.350001 0.0400224 -0.00230777
0.370001 0.0400236 -0.0023167
0.390001 0.0400247 -0.00232402
0.410001 0.0400257 -0.00232973
0.43 0.0400266 -0.00233383
0.45 0.0400275 -0.00233634
0.47 0.0400282 -0.00233726
0.49 0.0400287 -0.00233656
0.5 0.05504 -0.00311491
0.509999 0.0600476 -0.00333667
0.529999 0.0600486 -0.00333714
0.549999 0.0600493 -0.00333482
0.57 0.0600496 -0.00332976
0.59 0.0600496 -0.00332194
0.61 0.0600493 -0.00331135
0.63 0.0600487 -0.00329796
0.650001 0.0600478 -0.00328174
0.670001 0.0600465 -0.00326264
0.690001 0.060045 -0.0032406
0.710001 0.0600431 -0.0032154
0.730001 0.060041 -0.00318658
0.750001 0.0600386 -0.00315314
0.519999 0.0550408 -0.00311652
0.539999 0.0550417 -0.00311582
0.559999 0.0550422 -0.00311263
0.58 0.0550424 -0.00310698
0.6 0.0550424 -0.00309884
0.62 0.055042 -0.0030882
0.64 0.0550414 -0.00307503
0.66 0.0550404 -0.0030593
0.68 0.0550392 -0.00304099
0.7 0.0550377 -0.00301999
0.72 0.0550359 -0.00299605
0.740001 0.0550338 -0.00296853
0.509999 0.0500333 -0.00288197
0.529999 0.0500343 -0.0028826
0.549999 0.050035 -0.00288104
0.569999 0.0500354 -0.00287729
0.59 0.0500356 -0.00287136
0.61 0.0500355 -0.00286323
0.519999 0.0450287 -0.00261509
0.539999 0.0450293 -0.00261476
0.559999 0.0450297 -0.00261253
0.579999 0.0450299 -0.00260841
0.599999 0.0450298 -0.00260238
0.619999 0.0450295 -0.00259443
0.639999 0.0450289 -0.00258453
0.659999 0.0450282 -0.0025727
0.679999 0.0450272 -0.00255891
0.699999 0.0450259 -0.00254314
0.63 0.050035 -0.00285273
0.65 0.0500342 -0.00284017
0.67 0.0500331 -0.00282538
0.69 0.0500319 -0.00280832
0.71 0.0500304 -0.00278886
0.73 0.0500286 -0.00276664
0.75 0.0500267 -0.00274084
0.719999 0.045022 -0.00252614
0.739999 0.0450202 -0.00250603
0.51 0.0400295 -0.00233651
0.53 0.0400288 -0.00233712
0.55 0.040028 -0.00233616
0.57 0.0400271 -0.00233364
0.589999 0.0400261 -0.00232954
0.609999 0.040025 -0.00232384
0.629999 0.0400238 -0.00231655
0.649999 0.0400225 -0.00230765
0.669999 0.0400211 -0.00229715
0.689999 0.0400197 -0.00228507
0.709999 0.0400181 -0.00227132
0.729999 0.0400165 -0.00225568
0.749999 0.0400149 -0.00223751
0.770002 0.0600532 -0.0031125
0.790002 0.0600466 -0.00306554
0.810003 0.0600403 -0.00300292
0.830004 0.0600343 -0.0029183
0.760001 0.0550408 -0.00293265
0.780001 0.0550362 -0.0028972
0.800002 0.0550317 -0.00284939
0.820003 0.0550274 -0.00278425
0.840003 0.0550233 -0.00269501
0.850004 0.0600256 -0.00280491
0.870005 0.0600213 -0.00265203
0.890005 0.0600173 -0.0024535
0.860003 0.0550205 -0.00257218
0.77 0.0500174 -0.00271399
0.790001 0.0500169 -0.002677
0.810001 0.0500164 -0.00262649
0.830002 0.0500157 -0.00255701
0.850002 0.050015 -0.00246161
0.880003 0.0550103 -0.00241522
0.910004 0.0600112 -0.00220842
0.76 0.0450065 -0.00248255
0.78 0.0450084 -0.00245538
0.8 0.0450099 -0.00241782
0.82 0.0450111 -0.00236577
0.840001 0.0450121 -0.00229351
0.860001 0.0450128 -0.00219423
0.870002 0.0500161 -0.00233123
0.900003 0.0550065 -0.00221052
0.890002 0.050003 -0.00216994
0.119994 0.0650232 -0.00265441
0.0999942 0.0650185 -0.00241922
0.0799953 0.065014 -0.00213399
0.109993 0.070024 -0.0026201
0.0899933 0.0700196 -0.00234507
0.0999921 0.0750248 -0.00250185
0.119992 0.0750294 -0.0027574
0.0799932 0.0750199 -0.00219159
0.0899919 0.0800248 -0.00234862
0.109991 0.08003 -0.00263879
0.0999915 0.0850286 -0.00242476
0.119991 0.0850339 -0.0026874
0.0799927 0.085023 -0.00210693
0.0899922 0.0900265 -0.00218457
0.109991 0.0900323 -0.0024743
0.0999929 0.0950275 -0.00215892
0.119992 0.095033 -0.00241158
0.109994 0.100028 -0.00209845
0.0699935 0.0800194 -0.00200566
0.0699952 0.0700158 -0.0020225
0.199996 0.0650411 -0.00317352
0.219997 0.0650457 -0.00323407
0.239998 0.0650503 -0.00328041
0.139994 0.065028 -0.00284193
0.159995 0.0650326 -0.00298547
0.179995 0.0650373 -0.00309305
0.129993 0.0700293 -0.00284236
0.149993 0.0700339 -0.00301748
0.169994 0.0700385 -0.00315046
0.189995 0.070043 -0.00325037
0.209996 0.0700475 -0.00332571
0.229997 0.0700519 -0.00338334
0.139992 0.0750351 -0.00296204
0.159993 0.0750398 -0.00311991
0.179994 0.0750443 -0.00323914
0.199995 0.0750487 -0.00332894
0.219996 0.0750529 -0.00339734
0.239997 0.075057 -0.0034504
0.149992 0.0800409 -0.0030597
0.169993 0.0800455 -0.00320139
0.189994 0.08005 -0.00330848
0.209995 0.0800541 -0.00338994
0.229996 0.0800581 -0.00345307
0.129991 0.0800359 -0.00287405
0.139991 0.0850403 -0.00289807
0.159992 0.0850454 -0.00306117
0.179993 0.0850502 -0.00318501
0.199994 0.0850547 -0.00327895
0.219995 0.085059 -0.00335123
0.239996 0.0850631 -0.00340812
0.129991 0.090039 -0.00270951
0.149992 0.0900446 -0.00289533
0.169992 0.0900498 -0.00303751
0.189993 0.0900548 -0.00314538
0.209994 0.0900594 -0.00322784
0.229995 0.0900638 -0.00329216
0.139992 0.0950397 -0.00261334
0.159993 0.095045 -0.00276924
0.179993 0.0950499 -0.00288724
0.199994 0.0950546 -0.0029765
0.219995 0.0950591 -0.00304504
0.239996 0.0950633 -0.003099
0.129993 0.100034 -0.00231487
0.149993 0.10004 -0.00248465
0.169994 0.100045 -0.00261339
0.189995 0.100049 -0.00271004
0.209995 0.100054 -0.00278315
0.229996 0.100058 -0.00283968
0.219997 0.105044 -0.00242936
0.239998 0.105047 -0.00247056
0.159996 0.105032 -0.0022067
0.179996 0.105036 -0.00230408
0.199997 0.10504 -0.00237578
0.139996 0.105028 -0.0020747
0.249995 0.0900679 -0.00334107
0.249996 0.100062 -0.00288248
0.229999 0.110032 -0.00205104
0.249995 0.0800619 -0.00350271
0.209999 0.110029 -0.00201373
0.259998 0.0650453 -0.00331464
0.279998 0.0650476 -0.00335028
0.299998 0.0650498 -0.00338083
0.319999 0.065052 -0.00340684
0.339999 0.0650541 -0.00342845
0.359999 0.0650561 -0.00344551
0.329998 0.0700598 -0.00355609
0.349999 0.0700622 -0.0035771
0.369999 0.0700644 -0.00359279
0.249997 0.07005 -0.00342073
0.269997 0.0700524 -0.00346302
0.289998 0.0700549 -0.00349916
0.309998 0.0700574 -0.00353008
0.259996 0.0750568 -0.00349235
0.279997 0.0750595 -0.00353408
0.299997 0.0750623 -0.00356982
0.319998 0.075065 -0.00360016
0.339998 0.0750677 -0.00362511
0.359998 0.0750703 -0.00364438
0.269996 0.0800643 -0.00354868
0.289996 0.0800673 -0.00358924
0.309997 0.0800703 -0.00362393
0.329997 0.0800732 -0.00365304
0.349998 0.080076 -0.00367642
0.369998 0.0800787 -0.00369362
0.259995 0.0850663 -0.00345339
0.279995 0.0850695 -0.00349777
0.299996 0.0850726 -0.00353595
0.319996 0.0850757 -0.00356853
0.339997 0.0850788 -0.00359555
0.359997 0.0850817 -0.00361671
0.269995 0.090071 -0.00338703
0.289996 0.0900743 -0.0034283
0.309996 0.0900775 -0.00346382
0.329997 0.0900807 -0.00349389
0.349997 0.0900839 -0.00351839
0.369998 0.0900869 -0.00353694
0.299996 0.0950732 -0.00321892
0.319997 0.0950765 -0.00324984
0.339997 0.0950796 -0.00327566
0.359997 0.0950827 -0.00329614
0.259995 0.0950667 -0.00314106
0.279996 0.09507 -0.00318285
0.269996 0.100065 -0.00292252
0.289996 0.100068 -0.00295862
0.309997 0.100071 -0.00298978
0.329997 0.100075 -0.00301629
0.349997 0.100078 -0.00303801
0.369998 0.100081 -0.0030546
0.259997 0.10505 -0.00250178
0.279997 0.105053 -0.00253349
0.299997 0.105055 -0.00256086
0.319998 0.105058 -0.00258435
0.339998 0.105061 -0.00260398
0.359998 0.105064 -0.00261949
0.349999 0.110046 -0.00217331
0.369999 0.110049 -0.0021831
0.249999 0.110035 -0.00207672
0.269999 0.110037 -0.00210263
0.289999 0.110039 -0.00212477
0.309999 0.110041 -0.0021439
0.329999 0.110044 -0.00216023
0.379998 0.0650563 -0.0034659
0.399999 0.0650572 -0.00347994
0.419999 0.0650577 -0.00349096
0.44 0.065058 -0.00349901
[...]
POINT_DATA 1111
VECTORS alpha float
-0.00011919 -2.45523e-08 4.81692e-07
-0.000124751 -2.70746e-08 3.674e-07
-0.000128977 -2.92698e-08 2.78895e-07
-0.000132245 -3.11004e-08 2.12418e-07
-3.51494e-10 1.55197e-06 -5.50955e-08
-4.40171e-10 2.10586e-06 -7.8667e-08
-5.03806e-10 2.65706e-06 -1.03255e-07
-5.05116e-10 2.96856e-06 -1.19051e-07
-4.55572e-10 3.00224e-06 -1.23574e-07
-9.08238e-05 -1.08952e-08 8.57781e-07
-0.000102492 -1.30229e-08 7.52531e-07
-0.000111887 -1.48578e-08 6.16119e-07
-7.45972e-10 3.06269e-06 -9.32062e-08
-7.69896e-05 -8.50069e-10 8.94947e-07
-3.69565e-10 1.54724e-06 -5.13504e-08
-7.80513e-05 -1.54808e-09 3.42912e-07
-8.12915e-05 -1.46069e-09 2.57879e-07
-8.31761e-05 -1.22958e-09 1.88325e-07
-8.41206e-05 -8.37132e-10 1.36019e-07
-8.44857e-05 -2.68706e-10 9.74911e-08
-1.78394e-09 7.56309e-06 -2.04537e-07
-6.60502e-05 9.46299e-09 5.0443e-07
1.91744e-10 -9.49687e-07 4.00796e-08
1.30261e-11 -6.93142e-08 3.09646e-09
-1.97595e-10 1.16239e-06 -5.41722e-08
-3.29321e-10 2.18366e-06 -1.05079e-07
-3.68176e-10 2.78485e-06 -1.37389e-07
-3.42462e-10 2.97303e-06 -1.49649e-07
-7.30602e-05 2.32771e-09 4.34515e-07
-0.000134851 -1.47077e-08 1.91924e-07
-0.000137015 -1.34121e-08 1.66237e-07
-0.000138867 -1.19001e-08 1.47131e-07
-0.000140482 -1.02119e-08 1.30919e-07
-0.000141899 -8.38786e-09 1.15554e-07
-0.000143134 -6.46366e-09 1.00119e-07
-0.000144197 -4.4686e-09 8.43525e-08
-0.000145092 -2.42485e-09 6.82781e-08
-0.000145823 -3.47869e-10 5.19888e-08
-0.000146398 1.75285e-09 3.55307e-08
-0.000146823 3.8729e-09 1.88618e-08
-0.000147102 6.01206e-09 1.85046e-09
-0.000147241 8.17334e-09 -1.5706e-08
-3.89101e-10 2.81827e-06 -1.17288e-07
-3.04694e-10 2.50491e-06 -1.05988e-07
-2.28356e-10 2.14053e-06 -9.18609e-08
-1.65466e-10 1.77912e-06 -7.72846e-08
-1.16597e-10 1.4502e-06 -6.36578e-08
-8.00038e-11 1.16493e-06 -5.15924e-08
-5.32327e-11 9.23049e-07 -4.11867e-08
-3.39516e-11 7.1864e-07 -3.22628e-08
-2.02789e-11 5.43827e-07 -2.45328e-08
-1.08338e-11 3.90848e-07 -1.76947e-08
-4.66966e-12 2.52892e-07 -1.14757e-08
-1.17746e-12 1.24234e-07 -5.64346e-09
-8.39995e-05 -5.78091e-10 2.91033e-08
-8.39505e-05 4.6113e-10 2.16814e-08
-8.39049e-05 1.50526e-09 1.42727e-08
-8.38657e-05 2.55625e-09 6.84461e-09
-8.3837e-05 3.61796e-09 -6.79736e-10
-8.38218e-05 4.6958e-09 -8.40984e-09
-1.59259e-10 2.19102e-06 -1.14083e-07
-1.1234e-10 1.81953e-06 -9.56424e-08
-7.72638e-11 1.48226e-06 -7.85522e-08
-5.19763e-11 1.19226e-06 -6.36258e-08
-3.40824e-11 9.48438e-07 -5.09112e-08
-2.15273e-11 7.43068e-07 -4.0079e-08
-1.27834e-11 5.6666e-07 -3.06799e-08
-6.80866e-12 4.10451e-07 -2.22846e-08
-2.93329e-12 2.67342e-07 -1.45411e-08
-7.44888e-13 1.31914e-07 -7.18086e-09
-8.45416e-05 -7.16299e-09 8.89578e-08
-8.44651e-05 -6.45439e-09 7.56856e-08
-8.43542e-05 -5.66666e-09 6.61476e-08
-8.42521e-05 -4.82407e-09 5.82691e-08
-8.41704e-05 -3.9454e-09 5.09439e-08
-8.41056e-05 -3.04424e-09 4.36965e-08
-8.40505e-05 -2.12973e-09 3.63953e-08
0 0 0
-2.73167e-10 2.85572e-06 -1.45171e-07
-2.09646e-10 2.55974e-06 -1.31811e-07
-4.37814e-05 -2.92071e-09 3.02297e-08
-4.22591e-05 -2.74929e-09 2.48093e-08
-4.0908e-05 -2.56384e-09 2.10799e-08
-3.97383e-05 -2.37593e-09 1.81235e-08
-3.87356e-05 -2.19182e-09 1.54812e-08
-3.78778e-05 -2.01417e-09 1.29645e-08
-3.71443e-05 -1.84364e-09 1.05197e-08
-3.6521e-05 -1.67977e-09 8.145e-09
-3.60003e-05 -1.52151e-09 5.84603e-09
-3.55801e-05 -1.36734e-09 3.61671e-09
-3.52616e-05 -1.21527e-09 1.43425e-09
-3.50472e-05 -1.0627e-09 -7.38903e-10
-3.49396e-05 -9.06408e-10 -2.95009e-09
0 0 0
-0.000147241 -8.49274e-09 1.55449e-08
-0.000147102 -6.30876e-09 -1.8055e-09
-0.000146823 -4.1455e-09 -1.86795e-08
-0.000146398 -1.99982e-09 -3.52634e-08
-0.000145823 1.28073e-10 -5.16756e-08
-0.000145092 2.23344e-09 -6.79475e-08
-0.000144197 4.30604e-09 -8.4025e-08
-0.000143134 6.32938e-09 -9.98101e-08
-0.000141899 8.28013e-09 -1.15273e-07
-0.000140482 1.0128e-08 -1.30676e-07
-0.000138867 1.18368e-08 -1.46929e-07
-0.000137015 1.33662e-08 -1.66081e-07
-0.000134851 1.46764e-08 -1.91815e-07
-1.11454e-12 -1.24234e-07 5.6422e-09
-4.54266e-12 -2.52892e-07 1.14738e-08
-1.06416e-11 -3.90848e-07 1.76925e-08
-2.00199e-11 -5.43827e-07 2.45306e-08
-3.36226e-11 -7.18639e-07 3.22607e-08
-5.28282e-11 -9.23049e-07 4.11849e-08
-7.95153e-11 -1.16493e-06 5.15911e-08
-1.16012e-10 -1.4502e-06 6.3657e-08
-1.64771e-10 -1.77912e-06 7.72846e-08
-2.27538e-10 -2.14053e-06 9.18617e-08
-3.03747e-10 -2.50491e-06 1.0599e-07
-3.88039e-10 -2.81827e-06 1.17291e-07
-8.38218e-05 -4.88023e-09 8.1818e-09
-8.3837e-05 -3.78799e-09 5.99653e-10
-8.38657e-05 -2.71166e-09 -6.82276e-09
-8.39049e-05 -1.64559e-09 -1.4184e-08
-8.39505e-05 -5.85807e-10 -2.15519e-08
-8.39995e-05 4.69575e-10 -2.89523e-08
-6.86176e-13 -1.31914e-07 7.17963e-09
-2.81514e-12 -2.67342e-07 1.45392e-08
-6.63066e-12 -4.10451e-07 2.22824e-08
-1.25446e-11 -5.6666e-07 3.06777e-08
-2.12251e-11 -7.43068e-07 4.0077e-08
-3.37112e-11 -9.48437e-07 5.09094e-08
-5.15272e-11 -1.19226e-06 6.36244e-08
-7.67237e-11 -1.48226e-06 7.85514e-08
-1.11694e-10 -1.81953e-06 9.56422e-08
-1.58491e-10 -2.19102e-06 1.14084e-07
-8.40504e-05 2.03756e-09 -3.62368e-08
-8.41056e-05 2.96812e-09 -4.35408e-08
-8.41704e-05 3.8844e-09 -5.07986e-08
-8.42521e-05 4.77677e-09 -5.81399e-08
-8.43541e-05 5.63133e-09 -6.60386e-08
-8.44651e-05 6.42929e-09 -7.56002e-08
-8.45416e-05 7.14671e-09 -8.88984e-08
-2.08755e-10 -2.55974e-06 1.31812e-07
-2.72169e-10 -2.85572e-06 1.45172e-07
-3.49401e-05 1.07012e-09 2.76181e-09
-3.50488e-05 1.21914e-09 6.28977e-10
-3.52641e-05 1.36471e-09 -1.48734e-09
-3.55834e-05 1.51007e-09 -3.62919e-09
-3.60042e-05 1.65781e-09 -5.82986e-09
-3.65253e-05 1.80985e-09 -8.10893e-09
-3.71488e-05 1.96759e-09 -1.04701e-08
-3.78822e-05 2.13188e-09 -1.2906e-08
-3.87397e-05 2.30294e-09 -1.54173e-08
-3.97419e-05 2.4799e-09 -1.80567e-08
-4.0911e-05 2.65987e-09 -2.10122e-08
-4.22613e-05 2.83646e-09 -2.47422e-08
-4.37827e-05 2.99798e-09 -3.01645e-08
-0.000132244 4.18164e-08 -2.07058e-07
-0.000128977 3.90043e-08 -2.73042e-07
-0.000124751 3.57964e-08 -3.6145e-07
-0.000119189 3.22234e-08 -4.75955e-07
-4.55196e-10 -3.00232e-06 1.23242e-07
-5.04512e-10 -2.96863e-06 1.18809e-07
-5.03091e-10 -2.65711e-06 1.03101e-07
-4.39491e-10 -2.10589e-06 7.85843e-08
-3.50931e-10 -1.55199e-06 5.50579e-08
-0.000111886 2.14389e-08 -6.10839e-07
-0.000102491 1.84855e-08 -7.47898e-07
-9.08237e-05 1.52359e-08 -8.53926e-07
-3.68961e-10 -1.54725e-06 5.13317e-08
-8.44857e-05 1.10157e-10 -9.74179e-08
-8.41206e-05 6.85784e-10 -1.35946e-07
-8.31761e-05 1.08689e-09 -1.88251e-07
-8.12914e-05 1.32904e-09 -2.57803e-07
-7.80513e-05 1.43039e-09 -3.42836e-07
-7.44734e-10 -3.0627e-06 9.31992e-08
-7.69895e-05 4.10656e-09 -8.91939e-07
-3.41473e-10 -2.97303e-06 1.49637e-07
-3.67214e-10 -2.78485e-06 1.3738e-07
-3.28544e-10 -2.18366e-06 1.05073e-07
-1.97173e-10 -1.16239e-06 5.41694e-08
1.30006e-11 6.93143e-08 -3.09631e-09
1.91395e-10 9.49688e-07 -4.00778e-08
-7.30602e-05 -2.3965e-09 -4.34462e-07
-1.78083e-09 -7.56311e-06 2.04579e-07
-6.60501e-05 -9.53328e-09 -5.04386e-07
-2.00627e-09 8.90038e-06 -1.61898e-07
-3.0989e-09 1.44842e-05 -2.25139e-07
-4.71643e-09 2.4869e-05 -3.12519e-07
-0.000117961 -2.10565e-08 1.27262e-06
-9.85676e-05 -1.8515e-08 1.30515e-06
-3.08844e-09 2.41836e-05 -2.46755e-08
-2.50199e-09 1.75191e-05 -4.44067e-08
-3.68793e-09 3.53179e-05 2.25495e-08
-0.000121078 -2.62153e-08 1.73474e-06
-0.000146741 -3.02354e-08 1.72053e-06
9.7646e-10 3.70082e-05 6.1005e-07
2.80383e-10 2.93445e-05 4.84581e-07
2.15704e-09 4.8705e-05 7.97192e-07
-0.00014378 -3.6551e-08 2.11071e-06
-0.000176322 -4.27909e-08 2.12609e-06
1.28946e-08 5.32469e-05 1.95066e-06
1.0176e-08 4.47583e-05 1.72864e-06
-0.000205792 -4.93262e-08 2.37095e-06
-9.4285e-05 -2.10107e-08 1.56543e-06
-7.76729e-05 -4.84792e-09 1.20013e-06
-9.12486e-10 4.77294e-06 -1.19899e-07
-8.07571e-10 4.60491e-06 -1.20674e-07
-6.88329e-10 4.30926e-06 -1.16989e-07
-1.41227e-09 6.2482e-06 -1.27719e-07
-1.13849e-09 5.20653e-06 -1.16109e-07
-1.00871e-09 4.8895e-06 -1.1656e-07
-0.000135193 -2.68253e-08 1.16278e-06
-0.000149991 -2.99178e-08 9.78615e-07
-0.000162415 -3.24816e-08 7.87807e-07
-0.000172739 -3.46229e-08 6.2014e-07
-0.000181329 -3.63433e-08 4.86468e-07
-0.000188553 -3.75641e-08 3.83685e-07
-2.05359e-09 1.36509e-05 -5.22423e-08
-1.73481e-09 1.14224e-05 -5.62299e-08
-1.49822e-09 1.0055e-05 -5.88788e-08
-1.3004e-09 9.07167e-06 -6.03629e-08
-1.11842e-09 8.22029e-06 -6.03994e-08
-9.45841e-10 7.39672e-06 -5.89038e-08
-0.000191601 -3.96042e-08 1.36502e-06
-0.00021024 -4.14181e-08 1.11959e-06
-0.000226479 -4.26044e-08 8.99185e-07
-0.000240614 -4.32741e-08 7.21912e-07
-0.000252969 -4.33641e-08 5.87e-07
-0.000170403 -3.6847e-08 1.59331e-06
-1.29787e-10 2.42459e-05 4.0132e-07
-3.70013e-10 2.07389e-05 3.43198e-07
-5.0752e-10 1.81728e-05 3.00182e-07
-5.76442e-10 1.61375e-05 2.65742e-07
-5.96152e-10 1.43973e-05 2.36112e-07
-5.80061e-10 1.28327e-05 2.09383e-07
-0.000207213 -5.1784e-08 1.99291e-06
-0.000235777 -5.58838e-08 1.73371e-06
-0.000261732 -5.86375e-08 1.44479e-06
-0.00028509 -6.0536e-08 1.17986e-06
-0.000306032 -6.17725e-08 9.64052e-07
-0.000324809 -6.22619e-08 7.98824e-07
7.9588e-09 3.84982e-05 1.55495e-06
6.16162e-09 3.36889e-05 1.4103e-06
4.71589e-09 2.98259e-05 1.28526e-06
3.56579e-09 2.65849e-05 1.17284e-06
2.66329e-09 2.37642e-05 1.06869e-06
1.96548e-09 2.12432e-05 9.70412e-07
-0.00024462 -6.01329e-08 2.23377e-06
-0.000281465 -6.55254e-08 1.95343e-06
-0.000315831 -6.94672e-08 1.63319e-06
-0.000347544 -7.25495e-08 1.33618e-06
-0.000376633 -7.49778e-08 1.09371e-06
-0.000403234 -7.65875e-08 9.09333e-07
1.17409e-08 3.69837e-05 2.89124e-06
9.31896e-09 3.33039e-05 2.6654e-06
2.22278e-08 5.07831e-05 3.58603e-06
1.81719e-08 4.5595e-05 3.35226e-06
1.46767e-08 4.10453e-05 3.12039e-06
2.67625e-08 5.68314e-05 3.82106e-06
-0.000341667 -6.00524e-08 6.96511e-07
-0.000427504 -7.4974e-08 7.99137e-07
0.00230751 3.17639e-07 -3.69401e-06
-0.00026384 -4.14996e-08 5.31036e-07
0.00223335 3.14592e-07 -4.7707e-06
-5.62765e-10 3.90201e-06 -1.07683e-07
-4.44997e-10 3.43242e-06 -9.68417e-08
-3.41766e-10 2.94964e-06 -8.4815e-08
-2.5588e-10 2.48883e-06 -7.27515e-08
-1.87012e-10 2.06916e-06 -6.13576e-08
-1.33194e-10 1.69712e-06 -5.09601e-08
-0.000212513 -2.29299e-08 2.01425e-07
-0.000215685 -2.27553e-08 1.56026e-07
-0.00021842 -2.22551e-08 1.04028e-07
-0.000194718 -2.04098e-08 3.66457e-07
-0.000200066 -2.15258e-08 3.19156e-07
-0.000204753 -2.23193e-08 2.79704e-07
-0.000208881 -2.27855e-08 2.41816e-07
-7.28229e-10 6.57865e-06 -5.54891e-08
-5.90559e-10 5.77853e-06 -5.11074e-08
-4.69411e-10 5.01632e-06 -4.62118e-08
-3.65639e-10 4.30696e-06 -4.11215e-08
-2.78663e-10 3.65717e-06 -3.60542e-08
-2.07052e-10 3.06655e-06 -3.1133e-08
-0.000273465 -3.58602e-08 5.0293e-07
-0.000282016 -3.75183e-08 4.44217e-07
-0.00028961 -3.86153e-08 3.86045e-07
-0.000296324 -3.91121e-08 3.22301e-07
-0.000302211 -3.89693e-08 2.48897e-07
-0.000307305 -3.81319e-08 1.62894e-07
-4.04365e-10 1.13915e-05 1.84343e-07
-3.72542e-10 1.0054e-05 1.62267e-07
-3.29528e-10 8.81332e-06 1.41786e-07
-2.81404e-10 7.66444e-06 1.22821e-07
-2.32529e-10 6.60079e-06 1.05263e-07
-1.85829e-10 5.61372e-06 8.89758e-08
-0.000356819 -5.29345e-08 6.8557e-07
-0.000370429 -5.54277e-08 6.129e-07
-0.00038261 -5.71095e-08 5.40322e-07
-0.000393443 -5.79089e-08 4.60027e-07
-0.000402983 -5.77657e-08 3.66854e-07
-0.00041127 -5.66064e-08 2.57178e-07
8.68504e-10 1.48888e-05 7.04129e-07
6.17157e-10 1.30674e-05 6.23167e-07
4.29044e-10 1.1359e-05 5.45306e-07
2.89111e-10 9.74666e-06 4.70221e-07
1.64437e-09 1.89507e-05 8.76544e-07
1.20266e-09 1.68423e-05 7.88495e-07
-0.0004496 -6.63193e-08 7.86674e-07
-0.000469643 -7.02304e-08 7.09581e-07
-0.000487722 -7.30773e-08 6.32034e-07
-0.000503898 -7.47624e-08 5.44674e-07
-0.000518215 -7.52203e-08 4.41441e-07
-0.000530703 -7.43779e-08 3.18255e-07
7.65184e-09 2.99281e-05 2.44321e-06
5.98378e-09 2.67972e-05 2.22688e-06
4.63077e-09 2.38661e-05 2.01372e-06
3.53432e-09 2.1099e-05 1.80341e-06
2.64701e-09 1.84667e-05 1.59559e-06
1.93156e-09 1.59455e-05 1.38993e-06
0.0026153 3.1758e-07 -1.51403e-06
0.0026473 3.19905e-07 -1.04921e-06
0.00237427 2.35211e-07 -3.35324e-06
0.00243429 2.59116e-07 -2.90125e-06
0.00248804 2.78766e-07 -2.55884e-06
0.00253592 2.93653e-07 -2.24797e-06
0.00257825 3.03825e-07 -1.92065e-06
-8.33432e-11 1.37106e-06 -4.16419e-08
-5.60082e-11 1.08509e-06 -3.32476e-08
-3.55022e-11 8.31712e-07 -2.56611e-08
-2.04914e-11 6.03284e-07 -1.87089e-08
-9.98872e-12 3.92711e-07 -1.22194e-08
-3.30568e-12 1.93572e-07 -6.03241e-09
-0.000220742 -1.3127e-08 1.47501e-07
-0.000222649 -1.01313e-08 1.18646e-07
-0.000224159 -7.06526e-09 9.01555e-08
-0.000225283 -3.94702e-09 6.1788e-08
-0.000226027 -7.8544e-10 3.31649e-08
-0.000226397 2.41702e-09 3.79798e-09
-1.0449e-10 2.53003e-06 -2.61171e-08
-7.81398e-11 2.04006e-06 -2.14941e-08
-5.60156e-11 1.58821e-06 -1.70015e-08
-3.75864e-11 1.16609e-06 -1.26279e-08
-2.23739e-11 7.65645e-07 -8.35236e-09
-9.96385e-12 3.7934e-07 -4.15078e-09
-0.000311646 -2.46555e-08 2.59891e-07
-0.000315222 -1.97356e-08 2.1278e-07
-0.000318064 -1.4665e-08 1.66013e-07
-0.000320185 -9.48501e-09 1.19078e-07
-0.000321593 -4.22161e-09 7.12534e-08
-0.000322295 1.10961e-09 2.1637e-08
-2.60993e-11 4.69325e-06 7.4536e-08
-3.36879e-11 3.82888e-06 6.05883e-08
-3.5382e-11 3.01021e-06 4.75122e-08
-3.23187e-11 2.22725e-06 3.51064e-08
-2.52071e-11 1.47052e-06 2.31783e-08
-1.44118e-11 7.31001e-07 1.15395e-08
-0.00041835 -3.57755e-08 3.84244e-07
-0.000424205 -2.85834e-08 3.18139e-07
-0.000428871 -2.1127e-08 2.514e-07
-0.00043236 -1.34752e-08 1.83264e-07
-0.000434681 -5.67459e-09 1.12648e-07
-0.000435839 2.24446e-09 3.81716e-08
3.84164e-10 8.21488e-06 3.994e-07
2.3287e-10 6.74965e-06 3.29449e-07
1.21586e-10 5.33802e-06 2.61398e-07
4.55022e-11 3.96807e-06 1.94833e-07
1.20418e-12 2.6287e-06 1.2935e-07
-1.35539e-11 1.30938e-06 6.45427e-08
-0.000541403 -4.68988e-08 4.6877e-07
-0.000550284 -3.74694e-08 3.87854e-07
-0.000557378 -2.76089e-08 3.04971e-07
-0.000562694 -1.7416e-08 2.19126e-07
-0.000566234 -6.95767e-09 1.28884e-07
-0.000568003 3.72333e-09 3.24009e-08
1.67127e-09 1.35149e-05 1.18983e-06
1.09774e-09 1.11582e-05 9.88771e-07
6.54254e-10 8.85996e-06 7.89286e-07
3.29677e-10 6.60689e-06 5.91018e-07
1.15851e-10 4.38672e-06 3.93619e-07
7.11879e-12 2.18804e-06 1.96736e-07
0.00267452 1.94883e-07 -1.6817e-06
0.0026969 1.53727e-07 -1.35991e-06
0.00271466 1.11369e-07 -1.03617e-06
0.00272791 6.80182e-08 -7.04163e-07
0.0027367 2.37198e-08 -3.55753e-07
0.00274108 -2.16127e-08 1.89532e-08
0 0 0
-3.18969e-12 -1.93571e-07 6.02723e-09
-9.6028e-12 -3.92709e-07 1.22088e-08
-1.95951e-11 -6.03281e-07 1.86879e-08
0 0 0
0 0 0
0 0 0
0 0 0
-0.000226398 2.7312e-09 -2.27852e-09
-0.000226027 4.77496e-09 -3.45493e-08
-0.000225282 6.82124e-09 -6.70518e-08
-9.81275e-12 -3.79337e-07 4.14525e-09
-2.17801e-11 -7.6564e-07 8.34221e-09
-3.61315e-11 -1.16608e-06 1.26063e-08
-0.000322296 5.93263e-09 -1.8374e-08
-0.000321594 9.61183e-09 -7.3e-08
-0.000320185 1.3287e-08 -1.27396e-07
-1.46578e-11 -7.30994e-07 -1.15163e-08
-2.61001e-11 -1.47051e-06 -2.31434e-08
-3.41441e-11 -2.22723e-06 -3.50785e-08
-0.000435837 7.62096e-09 -1.56108e-08
-0.000434678 1.33324e-08 -9.72063e-08
-0.000432357 1.90163e-08 -1.77814e-07
-1.41038e-11 -1.30937e-06 -6.44918e-08
-6.03512e-13 -2.62868e-06 -1.29259e-07
4.17087e-11 -3.96805e-06 -1.94722e-07
-0.000568 8.59326e-09 -4.00645e-09
-0.000566231 1.64094e-08 -1.1e-07
-0.000562689 2.41417e-08 -2.13826e-07
6.10336e-12 -2.18802e-06 -1.96635e-07
1.12665e-10 -4.38669e-06 -3.9342e-07
3.22672e-10 -6.60685e-06 -5.90726e-07
0.00274109 -2.83566e-08 -9.3057e-08
0.00273671 -6.04844e-08 3.39724e-07
0.00272791 -9.22574e-08 7.61666e-07
-3.45514e-11 -8.31699e-07 2.56662e-08
-5.42603e-11 -1.08508e-06 3.32625e-08
-8.0551e-11 -1.37106e-06 4.16819e-08
-0.00022416 4.02082e-09 -7.24428e-08
-0.00022265 1.50034e-08 -1.08458e-07
-0.000220743 2.56546e-08 -1.41459e-07
-5.38791e-11 -1.5882e-06 1.70462e-08
-7.44823e-11 -2.04005e-06 2.15488e-08
-9.89137e-11 -2.53004e-06 2.62082e-08
-0.000318065 9.1171e-09 -1.43284e-07
-0.000315223 2.5493e-08 -1.98539e-07
-0.000311647 4.12695e-08 -2.49902e-07
-3.79082e-11 -3.01019e-06 -4.7353e-08
-3.76746e-11 -3.82888e-06 -6.04434e-08
-3.20557e-11 -4.69328e-06 -7.43624e-08
-0.000428869 1.30068e-08 -2.0963e-07
-0.000424204 3.57007e-08 -2.84864e-07
-0.000418351 5.7461e-08 -3.54992e-07
1.19402e-10 -5.33802e-06 -2.6105e-07
2.28643e-10 -6.74969e-06 -3.29149e-07
3.77101e-10 -8.21498e-06 -3.99069e-07
-0.000557376 1.56359e-08 -2.6236e-07
-0.000550283 4.50639e-08 -3.5028e-07
-0.000541404 7.31797e-08 -4.32001e-07
6.54747e-10 -8.86001e-06 -7.8864e-07
1.09582e-09 -1.11583e-05 -9.88233e-07
1.6658e-09 -1.35152e-05 -1.18927e-06
0.00271467 -4.33263e-08 9.78093e-07
0.0026969 -1.789e-07 1.29206e-06
0.00267453 -3.10995e-07 1.58891e-06
-1.32439e-10 -1.69711e-06 5.10626e-08
-1.86321e-10 -2.06914e-06 6.14937e-08
-2.55286e-10 -2.4888e-06 7.29143e-08
-3.41302e-10 -2.9496e-06 8.49929e-08
-4.44699e-10 -3.43237e-06 9.70185e-08
-5.62666e-10 -3.90194e-06 1.07839e-07
-0.00021842 1.36616e-08 -1.36385e-07
-0.000215684 1.62871e-08 -1.7629e-07
-0.000212512 1.86233e-08 -2.11825e-07
-0.000208881 2.06496e-08 -2.44315e-07
-0.000204752 2.23326e-08 -2.75919e-07
-0.000200066 2.36358e-08 -3.10376e-07
-0.000194719 2.45326e-08 -3.53704e-07
-2.05504e-10 -3.06653e-06 3.12357e-08
-2.77206e-10 -3.65714e-06 3.62199e-08
-3.64328e-10 -4.30692e-06 4.13351e-08
-4.68302e-10 -5.01626e-06 4.64527e-08
-5.89709e-10 -5.77845e-06 5.13493e-08
-7.27703e-10 -6.57855e-06 5.57008e-08
-0.000307305 2.64256e-08 -2.05198e-07
-0.000302211 3.02375e-08 -2.75522e-07
-0.000296324 3.33967e-08 -3.36177e-07
-0.00028961 3.59118e-08 -3.8975e-07
-0.000282016 3.77707e-08 -4.39881e-07
-0.000273465 3.89602e-08 -4.92259e-07
-1.8615e-10 -5.61369e-06 -8.88346e-08
-2.351e-10 -6.60074e-06 -1.0502e-07
-2.86855e-10 -7.66437e-06 -1.22511e-07
-3.38541e-10 -8.81322e-06 -1.41451e-07
-3.85867e-10 -1.00539e-05 -1.61956e-07
-4.22832e-10 -1.13913e-05 -1.84109e-07
-0.000411269 3.96702e-08 -3.04244e-07
-0.000402983 4.51638e-08 -3.94801e-07
-0.000393442 4.96673e-08 -4.72554e-07
-0.00038261 5.31814e-08 -5.40675e-07
-0.000370429 5.56859e-08 -6.03768e-07
-0.00035682 5.71724e-08 -6.69125e-07
2.89256e-10 -9.74661e-06 -4.70183e-07
4.25799e-10 -1.13589e-05 -5.45072e-07
6.09466e-10 -1.30673e-05 -6.22803e-07
8.55228e-10 -1.48886e-05 -7.03715e-07
1.18255e-09 -1.68422e-05 -7.88116e-07
1.61603e-09 -1.89505e-05 -8.76293e-07
-0.000530701 5.25908e-08 -3.71414e-07
-0.000518214 5.92066e-08 -4.73101e-07
-0.000503897 6.44896e-08 -5.58932e-07
-0.000487722 6.84137e-08 -6.32499e-07
-0.000469643 7.09388e-08 -6.99266e-07
-0.0004496 7.20587e-08 -7.68043e-07
1.93282e-09 -1.59454e-05 -1.39015e-06
2.64365e-09 -1.84666e-05 -1.59547e-06
3.52458e-09 -2.10988e-05 -1.80306e-06
4.61275e-09 -2.38659e-05 -2.01328e-06
5.95547e-09 -2.67969e-05 -2.22648e-06
7.61101e-09 -2.99278e-05 -2.44301e-06
0.00264729 -2.19083e-07 1.27382e-06
0.0026153 -2.44405e-07 1.65881e-06
0.00257824 -2.58279e-07 1.99765e-06
0.00253592 -2.75457e-07 2.26801e-06
0.00248804 -2.87358e-07 2.53107e-06
0.0024343 -2.93647e-07 2.83311e-06
0.00237427 -2.94559e-07 3.25084e-06
-6.85182e-10 -4.30927e-06 1.16309e-07
-8.04616e-10 -4.60494e-06 1.20056e-07
-9.09855e-10 -4.77298e-06 1.19369e-07
-1.00747e-09 -4.88965e-06 1.16075e-07
-1.1371e-09 -5.20668e-06 1.15717e-07
-1.41058e-09 -6.24836e-06 1.27399e-07
-0.000263839 5.17649e-08 -4.94432e-07
-0.000427503 9.12647e-08 -7.77538e-07
-0.000188553 3.71709e-08 -3.54522e-07
-0.000181329 3.4768e-08 -4.6685e-07
-0.000172739 3.19272e-08 -6.08421e-07
-0.000162416 2.87809e-08 -7.82521e-07
-0.000149991 2.53902e-08 -9.78442e-07
-0.000135193 2.17169e-08 -1.16647e-06
-0.000341667 7.30894e-08 -6.50103e-07
-9.40225e-10 -7.39671e-06 5.79192e-08
-1.11297e-09 -8.22031e-06 5.94605e-08
-1.29528e-09 -9.07173e-06 5.95068e-08
-1.49357e-09 -1.00551e-05 5.81386e-08
-1.73076e-09 -1.14225e-05 5.56344e-08
-2.05031e-09 -1.36512e-05 5.18314e-08
-0.000252969 4.23725e-08 -5.45483e-07
-0.000240614 4.07621e-08 -6.93492e-07
-0.000226479 3.86866e-08 -8.81468e-07
-0.00021024 3.62803e-08 -1.11049e-06