# vtk DataFile Version 3.0
vtk output
ASCII
DATASET POLYDATA
POINTS 36865 float
0.37618 1.63262 -0.0995333
0.458826 1.63232 -0.100258
0.417637 1.63243 -0.100121
0.438229 1.63238 -0.0999779
0.479352 1.63231 -0.10002
0.427957 1.62741 -0.0997229
0.407372 1.62748 -0.0996303
0.397145 1.63253 -0.0996934
0.458821 1.62234 -0.0996284
0.448542 1.62736 -0.0997705
0.469083 1.62732 -0.0997884
0.489591 1.62731 -0.0997042
0.365768 1.62768 -0.0991868
0.355352 1.63274 -0.0992097
0.417668 1.62245 -0.0994967
0.438242 1.6224 -0.0993451
0.47933 1.62233 -0.0993924
0.376226 1.62264 -0.0989058
0.33443 1.6329 -0.0988853
0.417693 1.61247 -0.0988531
0.407408 1.61751 -0.0989958
0.427976 1.61744 -0.0990888
0.39719 1.62255 -0.0990781
0.386679 1.62759 -0.09911
0.45881 1.61237 -0.0990027
0.448541 1.61739 -0.0991437
0.469063 1.61735 -0.0991613
0.489553 1.61733 -0.099078
0.313581 1.63308 -0.0983787
0.365834 1.6177 -0.09856
0.355424 1.62276 -0.0986002
0.344984 1.62783 -0.0987141
0.438247 1.61243 -0.0987065
0.386735 1.61761 -0.0984601
0.448547 1.60741 -0.0984976
0.46906 1.60737 -0.0985129
0.489541 1.60736 -0.0984332
0.479297 1.61235 -0.0987676
0.32407 1.628 -0.0983327
0.292392 1.63328 -0.0980388
0.376278 1.61266 -0.0982692
0.345055 1.61785 -0.0980829
0.334516 1.62292 -0.0982993
0.417715 1.6025 -0.0982122
0.407438 1.60753 -0.0983575
0.427984 1.60746 -0.0984496
0.397233 1.61257 -0.0984474
0.458795 1.60239 -0.0983685
0.479288 1.60238 -0.0981171
0.499726 1.60236 -0.0982129
0.324151 1.61802 -0.0977088
0.31369 1.6231 -0.0977937
0.303039 1.62818 -0.097975
0.365893 1.60772 -0.0979398
0.35549 1.61278 -0.0979874
0.428003 1.59748 -0.0978064
0.397268 1.60259 -0.097791
0.438249 1.60245 -0.098062
0.386802 1.60763 -0.0978574
0.448542 1.59743 -0.0978681
0.469037 1.5974 -0.0978811
0.489502 1.59738 -0.0978064
0.151555 1.74513 -0.0990631
0.151857 1.73514 -0.0985348
0.152145 1.72515 -0.0980579
0.189561 1.68958 -0.0990995
0.177637 1.68478 -0.0985477
0.202002 1.68441 -0.0986496
0.189831 1.67959 -0.0984709
0.177895 1.67479 -0.0979658
0.202233 1.67442 -0.0980868
0.190047 1.6696 -0.0979192
0.165457 1.68998 -0.0978051
0.236741 1.68888 -0.10003
0.258887 1.68858 -0.10019
0.247811 1.68373 -0.0999207
0.236896 1.67889 -0.0994144
0.259027 1.6786 -0.0995481
0.225682 1.68406 -0.0992815
0.247973 1.67374 -0.0992878
0.21401 1.68922 -0.0990867
0.248102 1.66376 -0.0986758
0.237019 1.66891 -0.0988399
0.259146 1.66862 -0.0989269
0.225865 1.67407 -0.098671
0.214219 1.67924 -0.0984391
0.248247 1.65378 -0.0980535
0.237192 1.65892 -0.0982201
0.259283 1.65863 -0.0982946
0.226045 1.66408 -0.0980918
0.214403 1.66926 -0.0978296
0.20179 1.69439 -0.0992292
0.177387 1.69477 -0.0990925
0.189324 1.69956 -0.0996856
0.165186 1.69997 -0.0983733
0.177134 1.70475 -0.0996552
0.201545 1.70438 -0.0998403
0.189094 1.70955 -0.100225
0.201308 1.71437 -0.100421
0.164913 1.70996 -0.0989158
0.188868 1.71954 -0.100771
0.176852 1.71474 -0.100222
0.164659 1.71995 -0.0993902
0.17659 1.72473 -0.100739
0.201069 1.72435 -0.101003
0.188628 1.72953 -0.101329
0.164398 1.72994 -0.0998999
0.200837 1.73434 -0.101593
0.176316 1.73472 -0.101295
0.188367 1.73951 -0.10191
0.164103 1.73992 -0.100472
0.17604 1.74471 -0.101863
0.200623 1.74433 -0.102109
0.188119 1.7495 -0.102487
0.163799 1.74991 -0.101008
0.258767 1.69857 -0.100805
0.247672 1.69371 -0.100526
0.225529 1.69404 -0.0998359
0.213819 1.69921 -0.0997065
0.247523 1.7037 -0.101142
0.236613 1.69886 -0.100609
0.213614 1.7092 -0.100295
0.25862 1.70855 -0.101437
0.23646 1.70885 -0.101189
0.225348 1.70403 -0.100436
0.247352 1.71368 -0.101772
0.225155 1.71401 -0.101016
0.212787 1.74914 -0.102557
0.213393 1.71918 -0.100878
0.258462 1.71853 -0.102079
0.236288 1.71883 -0.101782
0.213188 1.72917 -0.101456
0.212991 1.73916 -0.101988
0.247189 1.72366 -0.102387
0.224969 1.724 -0.101591
0.258326 1.72851 -0.102717
0.236127 1.72882 -0.102378
0.247042 1.73364 -0.103017
0.2248 1.73398 -0.10217
0.258195 1.73849 -0.103325
0.235952 1.7388 -0.102979
0.246889 1.74363 -0.103631
0.224646 1.74397 -0.102707
0.258065 1.74848 -0.103919
0.235782 1.74878 -0.103613
0.151265 1.75512 -0.0995709
0.150931 1.76511 -0.100087
0.150648 1.7751 -0.100533
0.13808 1.7803 -0.0988018
0.150301 1.78508 -0.101081
0.137772 1.79029 -0.0992686
0.149978 1.79507 -0.101608
0.137567 1.80028 -0.0996477
0.149659 1.80506 -0.102123
0.137234 1.81027 -0.100115
0.149382 1.81504 -0.102565
0.136882 1.82025 -0.100593
0.149106 1.82503 -0.102981
0.136481 1.83024 -0.101106
0.148786 1.83502 -0.103485
0.136201 1.84023 -0.101542
0.148501 1.845 -0.103973
0.135857 1.85022 -0.102048
0.148194 1.85499 -0.104478
0.147917 1.86498 -0.104907
0.135456 1.86021 -0.102577
0.123174 1.86544 -0.100063
0.123682 1.85545 -0.099516
0.124015 1.84545 -0.0991009
0.124319 1.83547 -0.0986868
0.124604 1.82548 -0.098308
0.138478 1.77032 -0.0982699
0.12499 1.81548 -0.0978699
0.138751 1.76032 -0.0978493
0.200391 1.75431 -0.102674
0.175847 1.7547 -0.102338
0.187903 1.75949 -0.103007
0.163522 1.7599 -0.101486
0.200147 1.7643 -0.103243
0.175606 1.76468 -0.102816
0.187651 1.76947 -0.103548
0.163242 1.76989 -0.102016
0.199885 1.77428 -0.103846
0.175357 1.77467 -0.10334
0.162937 1.77988 -0.102562
0.187394 1.77946 -0.104091
0.199639 1.78427 -0.104427
0.175071 1.78466 -0.103893
0.162635 1.78986 -0.103135
0.187103 1.78945 -0.104708
0.199376 1.79425 -0.105002
0.174824 1.79464 -0.1044
0.162379 1.79985 -0.10365
0.186839 1.79943 -0.105261
0.199132 1.80424 -0.105562
0.174572 1.80463 -0.104925
0.246734 1.75361 -0.104246
0.224463 1.75396 -0.103303
0.212573 1.75913 -0.103136
0.257913 1.75846 -0.10456
0.235606 1.75877 -0.104177
0.2466 1.76359 -0.104839
0.224273 1.76394 -0.103915
0.212125 1.7791 -0.10431
0.211905 1.78908 -0.104922
0.211695 1.79906 -0.105494
0.212367 1.76911 -0.103723
0.257771 1.76844 -0.1052
0.235439 1.76875 -0.104772
0.246435 1.77358 -0.10546
0.224054 1.77392 -0.104561
0.257633 1.77842 -0.105822
0.235253 1.77873 -0.10537
0.22387 1.7839 -0.105159
0.246299 1.78356 -0.106057
0.257479 1.7884 -0.106442
0.235081 1.78871 -0.106003
0.223662 1.79388 -0.105765
0.246128 1.79354 -0.106681
0.257344 1.79838 -0.107067
0.234932 1.79869 -0.106593
0.223478 1.80387 -0.106351
0.245982 1.80352 -0.107288
0.257192 1.80836 -0.107694
0.234785 1.80868 -0.107142
0.162079 1.80984 -0.104206
0.186565 1.80942 -0.105835
0.198881 1.81422 -0.106134
0.174288 1.81461 -0.105462
0.161806 1.81982 -0.104685
0.186303 1.8194 -0.106392
0.198616 1.8242 -0.106721
0.174001 1.8246 -0.105979
0.161494 1.82981 -0.10519
0.186066 1.82939 -0.106926
0.173724 1.83459 -0.106522
0.198338 1.83419 -0.107321
0.161201 1.83979 -0.10574
0.185831 1.83937 -0.10746
0.198094 1.84417 -0.107873
0.173462 1.84457 -0.107079
0.160954 1.84978 -0.106232
0.185578 1.84935 -0.108
0.197845 1.85415 -0.108446
0.173233 1.85455 -0.107629
0.210323 1.85896 -0.108924
0.160644 1.85976 -0.106796
0.185328 1.85934 -0.108547
0.197609 1.86414 -0.108995
0.17299 1.86454 -0.108189
0.211467 1.80905 -0.106007
0.268352 1.81321 -0.108149
0.223273 1.81385 -0.106929
0.24582 1.8135 -0.107891
0.210993 1.82902 -0.107178
0.210765 1.83899 -0.107782
0.210559 1.84898 -0.108357
0.25704 1.81834 -0.108316
0.23463 1.81866 -0.10771
0.211228 1.81903 -0.106604
0.245649 1.82348 -0.108506
0.268205 1.82319 -0.108771
0.223056 1.82383 -0.107521
0.256888 1.82832 -0.108908
0.234451 1.82865 -0.108297
0.222847 1.83381 -0.108139
0.268072 1.83317 -0.109382
0.245519 1.83347 -0.10907
0.256746 1.8383 -0.109513
0.234284 1.83862 -0.108931
0.222676 1.8438 -0.108672
0.267941 1.84315 -0.110008
0.245375 1.84344 -0.109671
0.25662 1.84828 -0.110138
0.234105 1.8486 -0.10956
0.222474 1.85378 -0.109273
0.267808 1.85312 -0.110634
0.245223 1.85342 -0.11028
0.233922 1.85858 -0.110125
0.256466 1.85826 -0.110772
0.222273 1.86376 -0.109847
0.267671 1.8631 -0.111241
0.245055 1.8634 -0.110905
0.323975 1.63798 -0.0989468
0.302917 1.63817 -0.0985709
0.3135 1.64306 -0.0990212
0.292294 1.64326 -0.0986837
0.323897 1.64796 -0.0995736
0.302795 1.64815 -0.0991821
0.313405 1.65304 -0.099666
0.292179 1.65324 -0.0992903
0.269958 1.68346 -0.0999876
0.270084 1.67347 -0.0993471
0.32383 1.65794 -0.100219
0.302699 1.65812 -0.0998286
0.323735 1.66792 -0.100813
0.302581 1.66811 -0.100405
0.313316 1.66302 -0.100286
0.29207 1.66322 -0.0999007
0.281194 1.66833 -0.0997176
0.313209 1.673 -0.100874
0.291957 1.6732 -0.100456
0.32365 1.6779 -0.101428
0.30249 1.67809 -0.101
0.313098 1.68298 -0.101503
0.291807 1.68318 -0.10107
0.323564 1.68787 -0.102074
0.30238 1.68807 -0.101613
0.312999 1.69296 -0.102138
0.291705 1.69316 -0.10169
0.280934 1.68829 -0.100925
0.28108 1.67831 -0.100324
0.281353 1.65835 -0.0991303
0.270187 1.66349 -0.0987234
0.281494 1.64837 -0.0985366
0.270366 1.65351 -0.0980816
0.281629 1.63839 -0.0979602
0.365728 1.63766 -0.0998095
0.344906 1.63781 -0.0993366
0.355307 1.64272 -0.0998551
0.376146 1.64259 -0.100199
0.334347 1.64288 -0.0995376
0.365697 1.64763 -0.100456
0.344852 1.64778 -0.0999863
0.376116 1.65257 -0.100856
0.334282 1.65285 -0.100197
0.355268 1.65269 -0.100527
0.376069 1.66255 -0.10147
0.365647 1.65761 -0.101095
0.355204 1.66267 -0.101135
0.344793 1.65776 -0.10062
0.334215 1.66284 -0.100812
0.36558 1.66759 -0.101727
0.344709 1.66774 -0.101233
0.376004 1.67252 -0.102134
0.355126 1.67265 -0.10177
0.334115 1.67281 -0.101427
0.365512 1.67757 -0.102365
0.344636 1.67772 -0.101869
0.375942 1.6825 -0.102797
0.355056 1.68263 -0.102409
0.33402 1.68279 -0.102045
0.365476 1.68754 -0.103021
0.344564 1.6877 -0.10252
0.375914 1.69247 -0.10345
0.355013 1.69261 -0.103056
0.333937 1.69277 -0.102673
0.269846 1.69344 -0.100622
0.323474 1.69785 -0.102713
0.302267 1.69805 -0.102237
0.280785 1.69828 -0.101456
0.269346 1.73337 -0.103136
0.269225 1.74335 -0.103765
0.269733 1.70342 -0.101244
0.3129 1.70293 -0.102789
0.291575 1.70314 -0.102297
0.269593 1.7134 -0.10188
0.269459 1.72338 -0.102514
0.3234 1.70783 -0.10336
0.302159 1.70803 -0.102852
0.280649 1.70826 -0.102055
0.312814 1.71291 -0.10347
0.291431 1.71312 -0.102919
0.323313 1.71781 -0.103973
0.302029 1.718 -0.10349
0.280478 1.71824 -0.102651
0.312699 1.72289 -0.104076
[...]
POINT_DATA 36865
VECTORS alpha float
-2.94178e-08 6.58904e-06 -4.37522e-07
-4.292e-09 2.20101e-06 -1.4839e-07
-1.29596e-08 4.39768e-06 -2.96766e-07
-8.61505e-09 3.30061e-06 -2.23955e-07
-1.12138e-10 1.10044e-06 -7.44579e-08
2.21547e-07 -4.16915e-10 3.1615e-09
2.198e-07 -5.13095e-10 3.21265e-09
-8.78037e-09 5.49188e-06 -3.68394e-07
-4.00818e-09 2.20146e-06 -1.49094e-07
2.2245e-07 -3.11924e-10 2.4237e-09
2.23194e-07 -1.38341e-10 2.74634e-09
2.23209e-07 -1.96731e-10 -9.16209e-10
2.18075e-07 -7.45443e-10 5.74738e-09
-3.27217e-08 7.7092e-06 -5.04718e-07
-1.30723e-08 4.39865e-06 -2.97657e-07
-8.26703e-09 3.30132e-06 -2.24681e-07
1.08963e-10 1.10066e-06 -7.47773e-08
-2.81428e-08 6.5905e-06 -4.37531e-07
-4.08312e-08 8.8903e-06 -5.83759e-07
-1.27106e-08 4.39965e-06 -2.96882e-07
2.19375e-07 -5.02272e-10 3.28963e-09
2.21062e-07 -4.10251e-10 3.1826e-09
-9.24907e-09 5.49309e-06 -3.67902e-07
2.19647e-07 -7.06412e-10 3.01581e-09
-3.73326e-09 2.20193e-06 -1.48993e-07
2.21912e-07 -3.03609e-10 2.46694e-09
2.22631e-07 -1.33801e-10 2.74827e-09
2.22636e-07 -1.94885e-10 -9.39127e-10
-5.91238e-08 1.01901e-05 -6.58907e-07
2.1796e-07 -7.33603e-10 5.90807e-09
-3.18797e-08 7.71089e-06 -5.04605e-07
2.15199e-07 -9.56323e-10 5.93938e-09
-7.66685e-09 3.30202e-06 -2.24598e-07
2.19396e-07 -6.96777e-10 3.03962e-09
2.183e-07 -2.92756e-10 2.45267e-09
2.18984e-07 -1.29467e-10 2.68867e-09
2.18984e-07 -1.93484e-10 -9.8418e-10
2.73906e-10 1.10089e-06 -7.47035e-08
2.13649e-07 -1.1952e-09 5.67592e-09
-5.72975e-08 1.16758e-05 -7.2277e-07
-2.77159e-08 6.59202e-06 -4.36633e-07
2.15235e-07 -9.46281e-10 6.03517e-09
-4.06557e-08 8.89239e-06 -5.82159e-07
-1.22381e-08 4.40059e-06 -2.95995e-07
2.15806e-07 -4.83491e-10 3.33776e-09
2.17423e-07 -3.96631e-10 3.1623e-09
-9.03657e-09 5.49431e-06 -3.6733e-07
-3.54296e-09 2.20236e-06 -1.49138e-07
2.58621e-10 1.10112e-06 -7.46879e-08
-6.7038e-15 -7.93783e-12 5.39097e-13
2.13813e-07 -1.18685e-09 5.75268e-09
-5.89991e-08 1.01923e-05 -6.60098e-07
2.11824e-07 -1.38972e-09 6.93007e-09
2.14625e-07 -7.07122e-10 6.05287e-09
-3.29673e-08 7.71266e-06 -5.04372e-07
2.15808e-07 -3.86608e-10 3.17314e-09
-1.0007e-08 5.49543e-06 -3.67007e-07
-7.48534e-09 3.3027e-06 -2.24442e-07
2.1584e-07 -6.64003e-10 3.23242e-09
2.16558e-07 -2.80851e-10 2.49052e-09
2.17216e-07 -1.24519e-10 2.64554e-09
2.17208e-07 -1.92214e-10 -1.05953e-09
-5.33826e-07 2.05445e-05 -1.0555e-06
-5.36046e-07 2.05488e-05 -1.07531e-06
-5.33632e-07 2.05534e-05 -1.07286e-06
2.4985e-07 -2.89895e-09 1.50874e-08
-4.31266e-07 2.03646e-05 -1.1535e-06
-3.24283e-07 1.91426e-05 -1.09579e-06
2.40226e-07 -2.78767e-09 1.44372e-08
-4.52231e-07 2.03693e-05 -1.16654e-06
-3.50979e-07 1.91466e-05 -1.12127e-06
2.39496e-07 -2.76446e-09 1.4565e-08
2.49477e-07 -2.96979e-09 8.68471e-09
2.42721e-07 -2.49337e-09 9.78129e-09
2.43416e-07 -2.26919e-09 8.67152e-09
-1.48304e-07 1.53091e-05 -9.11713e-07
2.33505e-07 -2.38755e-09 9.67868e-09
2.34328e-07 -2.17509e-09 8.42605e-09
-2.06751e-07 1.7323e-05 -1.02758e-06
-1.55936e-07 1.53117e-05 -9.27313e-07
2.46336e-07 -2.75519e-09 1.08313e-08
-1.5464e-07 1.53151e-05 -9.18932e-07
2.32947e-07 -2.36137e-09 9.95328e-09
2.33938e-07 -2.15764e-09 8.45783e-09
-2.22423e-07 1.73268e-05 -1.03951e-06
2.3699e-07 -2.63842e-09 1.04719e-08
-1.52218e-07 1.53184e-05 -9.10939e-07
2.27216e-07 -2.29233e-09 9.7919e-09
2.28301e-07 -2.09186e-09 8.36746e-09
-2.2181e-07 1.73301e-05 -1.04564e-06
2.36327e-07 -2.61642e-09 1.04699e-08
-3.29019e-07 1.91387e-05 -1.10032e-06
-4.47141e-07 2.03607e-05 -1.16757e-06
2.51686e-07 -2.93488e-09 1.49227e-08
2.52067e-07 -3.01086e-09 8.57499e-09
-4.47475e-07 2.03566e-05 -1.16999e-06
-3.20958e-07 1.91348e-05 -1.0943e-06
2.51924e-07 -2.95347e-09 1.44823e-08
-3.31606e-07 1.91311e-05 -1.09662e-06
2.52398e-07 -3.02767e-09 8.34347e-09
2.54885e-07 -3.00155e-09 1.44263e-08
-4.63561e-07 2.03529e-05 -1.18409e-06
2.55447e-07 -3.07525e-09 8.12094e-09
-4.51923e-07 2.03484e-05 -1.18128e-06
-3.30751e-07 1.9127e-05 -1.09356e-06
2.55539e-07 -3.02257e-09 1.41326e-08
2.55834e-07 -3.09759e-09 7.69295e-09
-3.0191e-07 1.9123e-05 -1.08723e-06
-4.33264e-07 2.0344e-05 -1.16928e-06
2.73082e-07 -3.2365e-09 1.49598e-08
2.73878e-07 -3.3234e-09 8.19173e-09
-3.91408e-07 2.03385e-05 -1.13104e-06
-2.98684e-07 1.91182e-05 -1.07792e-06
2.72382e-07 -3.23975e-09 1.45274e-08
2.73433e-07 -3.32286e-09 8.0351e-09
2.44727e-07 -2.29185e-09 8.57728e-09
-1.50089e-07 1.53056e-05 -9.18687e-07
-2.08928e-07 1.73192e-05 -1.02027e-06
2.47711e-07 -2.78414e-09 1.07081e-08
-1.51429e-07 1.53023e-05 -9.19705e-07
2.43932e-07 -2.5218e-09 9.37228e-09
2.48033e-07 -2.8044e-09 1.05482e-08
2.45064e-07 -2.31119e-09 8.47046e-09
2.44327e-07 -2.5464e-09 9.21831e-09
-2.01851e-07 1.73158e-05 -1.01074e-06
-1.51522e-07 1.52992e-05 -9.09992e-07
-2.04565e-07 1.73127e-05 -1.00047e-06
2.68214e-07 -3.08733e-09 1.07415e-08
2.51035e-07 -2.84872e-09 1.06671e-08
2.48167e-07 -2.35233e-09 8.51311e-09
2.47361e-07 -2.59371e-09 9.17552e-09
2.51811e-07 -2.87332e-09 1.04201e-08
2.68695e-07 -3.08165e-09 1.10013e-08
-1.54066e-07 1.52956e-05 -9.12684e-07
-2.0252e-07 1.73091e-05 -1.0067e-06
2.49432e-07 -2.37381e-09 8.52083e-09
2.48417e-07 -2.6184e-09 9.15511e-09
-1.36259e-07 1.52928e-05 -9.04229e-07
-1.83623e-07 1.73059e-05 -1.01223e-06
2.64975e-07 -2.54425e-09 8.77686e-09
2.64465e-07 -2.80585e-09 9.53636e-09
-1.32278e-07 1.52897e-05 -8.94434e-07
-1.88201e-07 1.73016e-05 -1.02039e-06
2.64717e-07 -2.55643e-09 8.54107e-09
2.641e-07 -2.80951e-09 9.17171e-09
-5.44805e-07 2.05397e-05 -1.04547e-06
-5.57271e-07 2.05352e-05 -1.05001e-06
-5.48621e-07 2.05299e-05 -1.03983e-06
2.75392e-07 -3.47643e-09 -1.3658e-08
-5.81883e-07 2.05252e-05 -1.06369e-06
2.81301e-07 -3.57412e-09 -1.47042e-08
-5.64837e-07 2.052e-05 -1.06364e-06
2.83215e-07 -3.62323e-09 -1.59741e-08
-5.81264e-07 2.05161e-05 -1.0766e-06
2.82857e-07 -3.63085e-09 -1.65515e-08
-5.78335e-07 2.0512e-05 -1.07206e-06
2.91552e-07 -3.76382e-09 -1.80027e-08
-5.68091e-07 2.05061e-05 -1.04919e-06
2.95055e-07 -3.82464e-09 -1.88241e-08
-5.65447e-07 2.0501e-05 -1.03922e-06
2.95468e-07 -3.86025e-09 -1.96575e-08
-5.38024e-07 2.04958e-05 -1.01326e-06
3.09842e-07 -4.07092e-09 -2.12466e-08
-5.38174e-07 2.04905e-05 -1.00747e-06
-5.68548e-07 2.0486e-05 -9.90052e-07
3.18754e-07 -4.20943e-09 -2.2049e-08
-6.37345e-07 1.94752e-05 -8.76817e-07
-6.36633e-07 1.94795e-05 -8.90727e-07
-6.49485e-07 1.94853e-05 -9.08318e-07
-6.55266e-07 1.949e-05 -9.13386e-07
-6.70667e-07 1.94943e-05 -9.49664e-07
2.71605e-07 -3.41024e-09 -1.27699e-08
-6.8622e-07 1.94991e-05 -9.88359e-07
2.67541e-07 -3.34264e-09 -1.18231e-08
-2.94324e-07 1.91137e-05 -1.0719e-06
-3.85478e-07 2.03334e-05 -1.11801e-06
2.73869e-07 -3.273e-09 1.42944e-08
2.74991e-07 -3.34624e-09 7.821e-09
-3.00289e-07 1.91092e-05 -1.07578e-06
-3.87449e-07 2.0329e-05 -1.12471e-06
2.78525e-07 -3.34288e-09 1.44621e-08
2.79695e-07 -3.40939e-09 7.87839e-09
-2.94665e-07 1.91047e-05 -1.07535e-06
-3.86716e-07 2.03239e-05 -1.12759e-06
2.83837e-07 -3.47047e-09 7.39562e-09
2.82518e-07 -3.3939e-09 1.4522e-08
-3.11145e-07 1.91002e-05 -1.09317e-06
-3.98792e-07 2.03189e-05 -1.14358e-06
2.90267e-07 -3.56129e-09 7.06111e-09
2.89051e-07 -3.46828e-09 1.469e-08
-2.9593e-07 1.90952e-05 -1.08354e-06
-3.74894e-07 2.03141e-05 -1.12858e-06
2.93156e-07 -3.62517e-09 6.03058e-09
2.92063e-07 -3.52543e-09 1.43339e-08
-2.97793e-07 1.90908e-05 -1.08012e-06
-3.85818e-07 2.03097e-05 -1.1269e-06
-1.31899e-07 1.52864e-05 -8.92343e-07
-1.88099e-07 1.72979e-05 -1.01806e-06
2.69744e-07 -3.11491e-09 1.06556e-08
2.66356e-07 -2.58439e-09 8.47518e-09
2.65746e-07 -2.84626e-09 8.97096e-09
-1.26502e-07 1.52825e-05 -8.97859e-07
-1.77478e-07 1.72938e-05 -1.01244e-06
2.7818e-07 -3.23067e-09 1.08736e-08
2.84407e-07 -3.30606e-09 1.10692e-08
2.87479e-07 -3.36203e-09 1.08803e-08
2.74223e-07 -3.17789e-09 1.07208e-08
2.70791e-07 -2.63801e-09 8.51555e-09
2.70231e-07 -2.91199e-09 8.94665e-09
-1.29463e-07 1.52786e-05 -8.9755e-07
-1.76613e-07 1.72897e-05 -9.99973e-07
2.74427e-07 -2.69229e-09 8.4737e-09
2.74077e-07 -2.96605e-09 8.99132e-09
-1.79803e-07 1.72851e-05 -1.00716e-06
-1.22454e-07 1.52756e-05 -8.91984e-07
2.80282e-07 -2.76152e-09 8.52971e-09
2.8011e-07 -3.0328e-09 9.14447e-09
-1.76282e-07 1.72813e-05 -9.98654e-07
-1.21386e-07 1.5272e-05 -8.8563e-07
2.832e-07 -2.8097e-09 8.31877e-09
2.83151e-07 -3.08735e-09 8.82933e-09
-1.74151e-07 1.7277e-05 -9.92577e-07
-1.15763e-07 1.5268e-05 -8.82065e-07
2.83243e-07 -2.82063e-09 8.21021e-09
2.83198e-07 -3.10943e-09 8.45265e-09
2.93148e-07 -3.63734e-09 5.51278e-09
2.92068e-07 -3.53635e-09 1.40332e-08
-2.9214e-07 1.90863e-05 -1.07625e-06
-3.60245e-07 2.03052e-05 -1.11027e-06
3.02311e-07 -3.77271e-09 4.90774e-09
3.01183e-07 -3.66375e-09 1.41477e-08
-2.92073e-07 1.90826e-05 -1.05808e-06
-3.36567e-07 2.02996e-05 -1.06892e-06
3.05854e-07 -3.83986e-09 4.09581e-09
3.04692e-07 -3.72701e-09 1.4078e-08
-3.27621e-07 2.0294e-05 -1.06025e-06
-2.88385e-07 1.90776e-05 -1.04551e-06
3.06518e-07 -3.87422e-09 3.35308e-09
3.05399e-07 -3.75226e-09 1.36133e-08
-2.64432e-07 1.90724e-05 -1.03266e-06
-3.18791e-07 2.02894e-05 -1.06209e-06
3.20906e-07 -4.08156e-09 2.26542e-09
3.20027e-07 -3.94294e-09 1.38303e-08
-2.76116e-07 1.90677e-05 -1.03816e-06
-3.33243e-07 2.02847e-05 -1.08897e-06
3.23322e-07 -3.876e-09 1.09252e-08
3.29303e-07 -4.21145e-09 1.51783e-09
3.28116e-07 -4.0628e-09 1.37326e-08
-2.68167e-07 1.90632e-05 -1.01162e-06
-3.46998e-07 2.02793e-05 -1.08471e-06
2.87665e-07 -3.37636e-09 1.07285e-08
-7.39355e-08 1.33382e-05 -7.94278e-07
-1.77625e-07 1.72729e-05 -9.95893e-07
-1.15277e-07 1.52642e-05 -8.77156e-07
3.00378e-07 -3.55701e-09 1.0964e-08
3.01225e-07 -3.58091e-09 1.07166e-08
3.15641e-07 -3.76892e-09 1.08864e-08
2.91858e-07 -2.92647e-09 8.23837e-09
2.92085e-07 -3.23089e-09 8.38577e-09
2.96682e-07 -3.49889e-09 1.09443e-08
-1.16656e-07 1.52608e-05 -8.64342e-07
-7.76664e-08 1.3335e-05 -7.87857e-07
-1.81568e-07 1.72688e-05 -9.90922e-07
2.9538e-07 -2.97978e-09 8.12391e-09
2.95679e-07 -3.2889e-09 8.27215e-09
-1.78949e-07 1.72641e-05 -9.85355e-07
-8.33634e-08 1.33313e-05 -7.85531e-07
-1.16131e-07 1.52564e-05 -8.61695e-07
2.96009e-07 -3.00928e-09 7.7463e-09
2.96578e-07 -3.30993e-09 8.06674e-09
-1.62136e-07 1.72595e-05 -9.72152e-07
-8.21605e-08 1.33275e-05 -7.81707e-07
-1.04062e-07 1.52524e-05 -8.62515e-07
3.09578e-07 -3.16118e-09 7.94616e-09
3.10384e-07 -3.48602e-09 8.04331e-09
-1.66948e-07 1.72549e-05 -9.74506e-07
-8.6529e-08 1.33242e-05 -7.73333e-07
-1.08196e-07 1.52482e-05 -8.62825e-07
3.17286e-07 -3.58425e-09 8.0439e-09
3.16236e-07 -3.24116e-09 7.92432e-09
-1.68697e-07 1.72507e-05 -9.61166e-07
-9.1004e-08 1.3321e-05 -7.73335e-07
-1.09252e-07 1.52448e-05 -8.59898e-07
2.16824e-07 -1.21943e-09 5.69999e-09
2.1503e-07 -1.42168e-09 6.8924e-09
-5.72482e-08 1.01879e-05 -6.60494e-07
-5.30367e-08 1.16733e-05 -7.30751e-07
2.19486e-07 -1.2395e-09 5.77987e-09
2.17724e-07 -1.44735e-09 6.90906e-09
-5.3241e-08 1.01857e-05 -6.59036e-07
-4.20989e-08 1.16711e-05 -7.23982e-07
-7.27783e-08 1.33792e-05 -8.09183e-07
-8.0516e-08 1.33814e-05 -8.22007e-07
2.30645e-07 -1.30767e-09 6.10747e-09
2.29563e-07 -1.53167e-09 7.24679e-09
2.35708e-07 -1.35543e-09 5.96366e-09
2.34865e-07 -1.58565e-09 7.1267e-09
-5.28267e-08 1.01839e-05 -6.59459e-07
-3.96291e-08 1.16689e-05 -7.28703e-07
2.34377e-07 -1.82615e-09 7.48831e-09
-5.66831e-08 1.01816e-05 -6.6697e-07
-4.28811e-08 1.16663e-05 -7.32835e-07
2.35372e-07 -1.36725e-09 5.87214e-09
2.34736e-07 -1.60413e-09 6.91781e-09
-5.30675e-08 1.01801e-05 -6.63696e-07
-3.79133e-08 1.16646e-05 -7.21068e-07
2.43859e-07 -1.42161e-09 6.09039e-09
2.4352e-07 -1.67433e-09 7.04017e-09
-5.51947e-08 1.01779e-05 -6.72157e-07
-3.75649e-08 1.16618e-05 -7.24593e-07
2.4345e-07 -1.92529e-09 7.47634e-09
2.34496e-07 -1.84445e-09 7.35671e-09
2.28921e-07 -1.76742e-09 7.51095e-09
-7.72908e-08 1.33847e-05 -8.09719e-07
2.16522e-07 -1.66217e-09 7.2318e-09
-7.65671e-08 1.33874e-05 -8.20976e-07
2.13823e-07 -1.6316e-09 7.31092e-09
2.2123e-07 -7.65635e-10 5.78667e-09
2.18393e-07 -9.80098e-10 5.90361e-09
-3.21382e-08 7.70748e-06 -5.04519e-07
-2.89749e-08 6.58751e-06 -4.37122e-07
-4.06657e-08 8.88841e-06 -5.82816e-07
2.2397e-07 -7.76556e-10 5.93674e-09
2.21106e-07 -9.96318e-10 6.00164e-09
-2.81977e-08 6.58589e-06 -4.37076e-07
-3.80294e-08 8.88622e-06 -5.82358e-07
-2.87341e-08 7.7055e-06 -5.05437e-07
-2.92986e-08 6.58481e-06 -4.33644e-07
2.33701e-07 -8.2036e-10 6.14492e-09
-2.96574e-08 7.70427e-06 -5.02135e-07
2.3152e-07 -1.05498e-09 6.17427e-09
-3.74083e-08 8.88467e-06 -5.7915e-07
2.38366e-07 -8.47812e-10 6.08903e-09
2.36382e-07 -1.09198e-09 6.07816e-09
-2.95535e-08 6.58335e-06 -4.38061e-07
-2.97559e-08 7.70264e-06 -5.07121e-07
-3.86676e-08 8.88271e-06 -5.85006e-07
2.3758e-07 -8.61217e-10 5.86985e-09
2.35786e-07 -1.10426e-09 5.90098e-09
-2.90505e-08 6.58226e-06 -4.37118e-07
-2.78002e-08 7.70131e-06 -5.08341e-07
-3.73538e-08 8.8811e-06 -5.86021e-07
2.45577e-07 -8.96043e-10 6.09532e-09
2.44039e-07 -1.15071e-09 6.07053e-09
-2.96544e-08 6.58121e-06 -4.36743e-07
-2.77754e-08 7.70014e-06 -5.08603e-07
-3.67499e-08 8.87956e-06 -5.8813e-07
-7.58836e-08 1.33761e-05 -8.10198e-07
2.47266e-07 -1.44702e-09 6.13706e-09
2.45941e-07 -1.69946e-09 6.98255e-09
2.45199e-07 -1.95652e-09 7.23594e-09
-6.86856e-08 1.33645e-05 -8.06237e-07
-6.79272e-08 1.33617e-05 -8.03296e-07
-7.53114e-08 1.33734e-05 -8.08734e-07
-5.25564e-08 1.01757e-05 -6.70694e-07
-3.38674e-08 1.16595e-05 -7.20135e-07
-7.71976e-08 1.33705e-05 -8.06304e-07
-7.5465e-08 1.33672e-05 -8.09087e-07
2.4786e-07 -1.45864e-09 6.14721e-09
2.46468e-07 -1.71685e-09 6.85431e-09
2.45518e-07 -1.98226e-09 7.07652e-09
-5.21013e-08 1.01731e-05 -6.74795e-07
-3.53768e-08 1.16567e-05 -7.23258e-07
2.5133e-07 -1.49458e-09 6.0346e-09
2.49785e-07 -1.74875e-09 6.82106e-09
2.48745e-07 -2.02266e-09 7.01854e-09
-5.17025e-08 1.01707e-05 -6.71573e-07
-3.5091e-08 1.16539e-05 -7.19579e-07
2.5331e-07 -1.51729e-09 5.93924e-09
2.51418e-07 -1.77677e-09 6.55708e-09
2.50318e-07 -2.04215e-09 6.97382e-09
-4.84448e-08 1.01685e-05 -6.65536e-07
-3.11321e-08 1.16516e-05 -7.20091e-07
2.66795e-07 -1.61396e-09 6.11355e-09
2.6567e-07 -1.89436e-09 6.86043e-09
2.65364e-07 -2.18703e-09 7.10968e-09
-4.70143e-08 1.01663e-05 -6.61187e-07
-2.79477e-08 1.1649e-05 -7.19926e-07
2.66774e-07 -1.62308e-09 6.06328e-09
2.65598e-07 -1.90431e-09 6.73948e-09
2.65384e-07 -2.20217e-09 6.86914e-09
2.51312e-07 -9.19246e-10 6.33497e-09
2.48633e-07 -1.18013e-09 6.13567e-09
-2.91762e-08 6.57971e-06 -4.34786e-07
-2.61809e-08 7.69836e-06 -5.0847e-07
-3.38679e-08 8.87737e-06 -5.89021e-07
2.51938e-07 -9.34705e-10 6.2341e-09
2.49217e-07 -1.19569e-09 6.02642e-09
-2.97912e-08 6.57787e-06 -4.37277e-07
-2.50444e-08 7.69629e-06 -5.11435e-07
-3.39335e-08 8.87512e-06 -5.91837e-07
2.5574e-07 -9.59459e-10 6.25305e-09
2.52828e-07 -1.22993e-09 5.89785e-09
-2.88094e-08 6.5762e-06 -4.34734e-07
-2.45287e-08 7.69441e-06 -5.09256e-07
-3.3013e-08 8.87288e-06 -5.91122e-07
2.58272e-07 -9.81392e-10 6.14377e-09
2.55015e-07 -1.24987e-09 5.88507e-09
-2.8811e-08 6.5744e-06 -4.33615e-07
-2.32873e-08 7.69233e-06 -5.09071e-07
-3.09217e-08 8.87055e-06 -5.9076e-07
2.70037e-07 -1.03432e-09 6.3849e-09
2.67605e-07 -1.32269e-09 6.07797e-09
-2.93378e-08 8.86874e-06 -5.86594e-07
-2.88118e-08 6.57287e-06 -4.32224e-07
-2.18756e-08 7.69078e-06 -5.04145e-07
2.70112e-07 -1.03765e-09 6.46631e-09
2.67654e-07 -1.33357e-09 5.99491e-09
2.23247e-07 -5.26828e-10 3.22556e-09
2.25033e-07 -4.26248e-10 3.19408e-09
2.23061e-07 -7.24396e-10 3.02916e-09
-1.22562e-08 4.39678e-06 -2.94993e-07
-8.32274e-09 3.29993e-06 -2.22563e-07
-7.08311e-09 5.49069e-06 -3.6749e-07
2.27985e-07 -4.36797e-10 3.20518e-09
2.26073e-07 -5.36253e-10 3.30123e-09
2.25979e-07 -7.34979e-10 3.09118e-09
-1.17227e-08 4.39566e-06 -2.96152e-07
-5.111e-09 5.48941e-06 -3.66615e-07
-8.01525e-09 3.29908e-06 -2.2342e-07
-1.17841e-08 4.39489e-06 -2.9398e-07
-8.30229e-09 3.29849e-06 -2.21712e-07
2.34567e-07 -5.71417e-10 3.26343e-09
2.35951e-07 -4.54257e-10 3.34602e-09
-4.06654e-09 5.48843e-06 -3.64306e-07
2.35077e-07 -7.7416e-10 3.15147e-09
2.39069e-07 -5.89647e-10 3.33231e-09
2.40395e-07 -4.6956e-10 3.39979e-09
2.39663e-07 -7.918e-10 3.26721e-09
-1.23253e-08 4.39388e-06 -2.96994e-07
-8.90915e-09 3.29776e-06 -2.23462e-07
-4.70338e-09 5.48716e-06 -3.68195e-07
2.37983e-07 -5.97571e-10 3.25118e-09
2.39138e-07 -4.73741e-10 3.36095e-09
2.38605e-07 -7.95687e-10 3.2333e-09
2.46397e-07 -8.2449e-10 3.41482e-09
-1.16705e-08 4.39311e-06 -2.95806e-07
-8.62716e-09 3.29716e-06 -2.22683e-07
-3.96068e-09 5.48619e-06 -3.67702e-07
2.45613e-07 -6.18359e-10 3.35599e-09
2.46608e-07 -4.89119e-10 3.47126e-09
-1.1188e-08 4.39241e-06 -2.96422e-07
-8.99824e-09 3.2966e-06 -2.23319e-07
-3.79537e-09 5.48537e-06 -3.6775e-07
2.2599e-07 -3.18311e-10 2.474e-09
2.26762e-07 -1.41121e-10 2.80232e-09
2.26782e-07 -1.98245e-10 -8.95868e-10
-4.02381e-09 2.20053e-06 -1.47849e-07
-1.19718e-10 1.10021e-06 -7.40885e-08
1.00098e-14 -9.44914e-12 6.3748e-13
2.28997e-07 -3.25471e-10 2.51824e-09
2.2979e-07 -1.45064e-10 2.8454e-09
2.29812e-07 -2.01859e-10 -8.99704e-10
2.37312e-07 -1.52387e-10 2.95766e-09
-3.91874e-09 2.19997e-06 -1.48523e-07
-1.23363e-10 1.09994e-06 -7.43441e-08
-3.70904e-15 -8.64764e-12 5.85011e-13
2.36635e-07 -3.38804e-10 2.6213e-09
2.37145e-07 -2.07431e-10 -9.15054e-10
-4.09121e-09 2.19958e-06 -1.47509e-07
-2.37955e-10 1.09973e-06 -7.39159e-08
2.4108e-07 -3.50026e-10 2.674e-09
2.41683e-07 -1.57173e-10 3.00782e-09
2.416e-07 -2.13216e-10 -9.23218e-10
-4.13308e-09 2.19908e-06 -1.48657e-07
-2.69639e-10 1.09948e-06 -7.44709e-08
-1.18041e-15 -8.57195e-12 5.81e-13
2.39707e-07 -3.53431e-10 2.67739e-09
2.4023e-07 -1.58665e-10 3.05391e-09
2.40103e-07 -2.10136e-10 -7.86563e-10
-4.00578e-09 2.19868e-06 -1.47907e-07
-3.2452e-10 1.09927e-06 -7.40623e-08
-1.19152e-15 -8.59053e-12 5.78711e-13
2.47039e-07 -3.69374e-10 2.69574e-09
2.47486e-07 -1.64493e-10 3.13976e-09
2.473e-07 -2.18341e-10 -8.45756e-10
-3.88453e-09 2.19829e-06 -1.4848e-07
-4.19257e-10 1.09908e-06 -7.42841e-08
1.37189e-15 -8.5369e-12 5.76375e-13
2.53331e-07 -8.45024e-10 3.66131e-09
2.55257e-07 -5.07808e-10 3.60577e-09
2.53431e-07 -6.39298e-10 3.48534e-09
-1.05139e-08 4.39147e-06 -2.94374e-07
-3.13188e-09 5.48416e-06 -3.65094e-07
-8.55732e-09 3.29586e-06 -2.22267e-07
2.54034e-07 -8.55497e-10 3.65155e-09
2.543e-07 -6.49699e-10 3.43282e-09
2.56052e-07 -5.15453e-10 3.55559e-09
-1.07777e-08 4.3903e-06 -2.94944e-07
-9.03269e-09 3.295e-06 -2.22704e-07
-3.80483e-09 5.4826e-06 -3.66355e-07
2.58011e-07 -8.73229e-10 3.78249e-09
2.60356e-07 -5.29821e-10 3.6192e-09
2.58482e-07 -6.69658e-10 3.4523e-09
-9.79592e-09 4.38914e-06 -2.94409e-07
-8.93467e-09 3.29418e-06 -2.2197e-07
-3.41431e-09 5.48125e-06 -3.64072e-07
2.60832e-07 -8.90439e-10 3.8058e-09
2.6155e-07 -6.8983e-10 3.41449e-09
2.63625e-07 -5.45066e-10 3.63211e-09
2.71809e-07 -9.32195e-10 4.0453e-09
2.71943e-07 -9.32156e-10 4.23267e-09
-9.80159e-09 4.38792e-06 -2.94239e-07
-9.22646e-09 3.29328e-06 -2.21739e-07
-3.90245e-09 5.47967e-06 -3.63256e-07
2.7186e-07 -7.20609e-10 3.5652e-09
2.73408e-07 -5.71698e-10 3.70787e-09
-8.34417e-09 4.38693e-06 -2.92491e-07
-9.10245e-09 3.29255e-06 -2.20144e-07
-2.97212e-09 5.47842e-06 -3.6134e-07
2.73654e-07 -5.72495e-10 3.72118e-09
2.71966e-07 -7.19654e-10 3.65762e-09
2.56163e-07 -3.84677e-10 2.80711e-09
2.56897e-07 -1.72087e-10 3.26379e-09
2.56824e-07 -2.26411e-10 -8.60332e-10
-3.72159e-09 2.19783e-06 -1.47579e-07
-4.12209e-10 1.09886e-06 -7.38467e-08
2.57859e-07 -1.75058e-10 3.28795e-09
2.57787e-07 -2.26831e-10 -8.18932e-10
2.56993e-07 -3.88576e-10 2.8019e-09
-3.89989e-09 2.19725e-06 -1.48062e-07
-4.9346e-10 1.09856e-06 -7.41593e-08
2.61387e-07 -4.03546e-10 2.82526e-09
2.62209e-07 -1.82279e-10 3.34098e-09
2.6216e-07 -2.34247e-10 -8.44763e-10
-3.80523e-09 2.1967e-06 -1.4781e-07
-4.70439e-10 1.09829e-06 -7.39722e-08
2.64805e-07 -4.16055e-10 2.86667e-09
2.65721e-07 -1.90835e-10 3.39895e-09
2.65714e-07 -2.40338e-10 -8.00289e-10
-3.73153e-09 2.19611e-06 -1.47662e-07
-5.44331e-10 1.09799e-06 -7.39847e-08
2.7422e-07 -4.33351e-10 2.97516e-09
2.74905e-07 -2.00884e-10 3.50224e-09
2.74765e-07 -2.50087e-10 -8.30494e-10
-3.43755e-09 2.19557e-06 -1.47194e-07