# vtk DataFile Version 3.0
vtk output
ASCII
DATASET POLYDATA
POINTS 9494 float
0.188581 0.479735 -0.0275024
0.188628 0.469721 -0.0270125
0.198787 0.474668 -0.0268993
0.20894 0.47961 -0.0268571
0.188678 0.459728 -0.0264586
0.198831 0.464674 -0.0263251
0.208979 0.469616 -0.0262667
0.219119 0.474564 -0.0263061
0.229255 0.479507 -0.0264228
0.249541 0.479459 -0.0263703
0.329768 0.479415 -0.0263478
0.390001 0.479399 -0.0263201
0.449999 0.479343 -0.0263105
0.469987 0.479341 -0.0262947
0.489977 0.479342 -0.0263591
0.811419 0.479735 -0.0275023
0.811372 0.469721 -0.0270124
0.801213 0.474668 -0.0268992
0.79106 0.47961 -0.026857
0.510023 0.479342 -0.0263594
0.530013 0.479341 -0.0262949
0.550001 0.479343 -0.0263107
0.609999 0.479399 -0.0263203
0.670232 0.479415 -0.0263481
0.811322 0.459727 -0.0264585
0.801169 0.464674 -0.026325
0.791021 0.469616 -0.0262666
0.780881 0.474564 -0.026306
0.750459 0.479459 -0.0263701
0.770744 0.479507 -0.0264228
0.117389 0.604786 -0.0300938
0.117462 0.594757 -0.029513
0.117541 0.584741 -0.0289293
0.107396 0.599781 -0.0284731
0.117621 0.574742 -0.0283247
0.107473 0.589784 -0.0279009
0.117691 0.564752 -0.0277191
0.107549 0.579798 -0.0273252
0.0973706 0.604815 -0.0271634
0.117783 0.554799 -0.0270208
0.107623 0.569824 -0.0267442
0.0974522 0.594836 -0.0266187
0.117871 0.544844 -0.0263286
0.168274 0.539689 -0.0297234
0.147852 0.539805 -0.0293066
0.158106 0.534755 -0.029222
0.178538 0.534651 -0.0293797
0.168352 0.529702 -0.028996
0.17859 0.524644 -0.0286938
0.158173 0.524758 -0.0285253
0.147955 0.529817 -0.0285824
0.137737 0.534884 -0.0285001
0.12753 0.539947 -0.0282323
0.168408 0.519696 -0.0283355
0.158235 0.514754 -0.0278838
0.178635 0.514652 -0.0280136
0.148031 0.51982 -0.0279029
0.137826 0.524884 -0.0278112
0.168461 0.509705 -0.0276726
0.127655 0.529959 -0.0275012
0.178679 0.504662 -0.0273556
0.148098 0.509819 -0.0272883
0.168516 0.499719 -0.0270273
0.158315 0.504777 -0.0272104
0.137929 0.514902 -0.0271181
0.12777 0.519976 -0.0268099
0.158381 0.494797 -0.0265797
0.178741 0.494695 -0.026696
0.148189 0.499848 -0.0266365
0.138005 0.504907 -0.0265361
0.168591 0.489757 -0.0263776
0.198738 0.484658 -0.0274967
0.219084 0.484544 -0.0269197
0.239375 0.48445 -0.0266189
0.188511 0.489698 -0.0281572
0.208899 0.489584 -0.0274826
0.229229 0.489472 -0.0270439
0.249518 0.489425 -0.026965
0.198685 0.494633 -0.028144
0.219054 0.49452 -0.0275478
0.239354 0.494418 -0.0272383
0.18844 0.499665 -0.0288787
0.20886 0.499561 -0.0281314
0.229198 0.499466 -0.0276443
0.249487 0.499425 -0.0275438
0.198634 0.504598 -0.0288307
0.219027 0.504496 -0.0282055
0.239338 0.504405 -0.0278611
0.188373 0.509631 -0.0295889
0.208824 0.509525 -0.0288327
0.22918 0.50943 -0.0283303
0.249473 0.509397 -0.0282047
0.198585 0.514578 -0.0295343
0.219003 0.514474 -0.0288965
0.239315 0.514389 -0.0285248
0.188307 0.519625 -0.0302867
0.20879 0.519519 -0.0295212
0.229164 0.519423 -0.029002
0.249461 0.519399 -0.0288536
0.198536 0.524573 -0.0302381
0.21898 0.524468 -0.0295892
0.239304 0.524383 -0.0291986
0.208756 0.529514 -0.0302301
0.229149 0.529417 -0.029697
0.249451 0.529416 -0.0295286
0.188223 0.529615 -0.0309978
0.218952 0.534466 -0.0302859
0.239293 0.534377 -0.0298976
0.198474 0.534566 -0.0309575
0.229132 0.539412 -0.0304201
0.24944 0.539431 -0.0302316
0.188153 0.539614 -0.031746
0.20871 0.539511 -0.0309588
0.158008 0.544754 -0.0299511
0.178465 0.544647 -0.030107
0.137618 0.544881 -0.0292328
0.168205 0.549703 -0.0304489
0.147763 0.549822 -0.0300302
0.127421 0.549964 -0.0289517
0.15793 0.554765 -0.0306918
0.178406 0.554651 -0.0308498
0.137492 0.554885 -0.0299946
0.168129 0.559709 -0.0311837
0.147651 0.559824 -0.0307928
0.127285 0.559964 -0.0297281
0.157846 0.564769 -0.0314311
0.178337 0.564648 -0.0316045
0.137365 0.564888 -0.0307568
0.168074 0.569692 -0.031891
0.147576 0.569805 -0.0314969
0.127164 0.569929 -0.0304062
0.157794 0.574736 -0.0320847
0.178303 0.574625 -0.0322533
0.137293 0.574842 -0.0314078
0.147511 0.579768 -0.0321346
0.168032 0.579666 -0.0325564
0.127082 0.579886 -0.0310284
0.157743 0.584708 -0.032754
0.17827 0.584605 -0.032918
0.137219 0.584804 -0.0320761
0.167984 0.589651 -0.0332032
0.147448 0.589742 -0.0328043
0.126967 0.589842 -0.0317462
0.178231 0.5946 -0.033576
0.157692 0.594689 -0.0334267
0.137149 0.594776 -0.0327401
0.167942 0.599642 -0.0338817
0.147386 0.599725 -0.0334744
0.126884 0.599816 -0.0324059
0.157637 0.604685 -0.0340784
0.178194 0.604596 -0.0342657
0.137077 0.604761 -0.0333637
0.239276 0.544383 -0.0306208
0.198417 0.544577 -0.0317168
0.218918 0.544474 -0.0310385
0.188074 0.549634 -0.0325306
0.208664 0.549529 -0.0317243
0.2291 0.549435 -0.0311501
0.249411 0.549501 -0.0309428
0.198356 0.55459 -0.0325064
0.218881 0.554489 -0.0317864
0.239249 0.554398 -0.0313457
0.187994 0.559645 -0.0333413
0.208618 0.559535 -0.0325171
0.229074 0.559436 -0.0319222
0.24939 0.559548 -0.0317117
0.198295 0.564593 -0.0332842
0.218845 0.564486 -0.032586
0.239226 0.56439 -0.0321266
0.187926 0.569625 -0.0341059
0.208579 0.569521 -0.0332362
0.229054 0.569418 -0.0326557
0.249376 0.569545 -0.0324296
0.198255 0.574561 -0.0339815
0.218828 0.574459 -0.0332683
0.239219 0.574371 -0.0327901
0.187872 0.579596 -0.0348082
0.208555 0.579498 -0.0339258
0.229043 0.579409 -0.0333071
0.249366 0.579514 -0.0330457
0.198217 0.58454 -0.0347192
0.218815 0.584445 -0.0339499
0.239216 0.584361 -0.0334511
0.187822 0.589586 -0.035507
0.208534 0.589492 -0.0346132
0.229037 0.589407 -0.0339792
0.249363 0.589494 -0.0336886
0.198189 0.594536 -0.0353949
0.218807 0.594444 -0.0346209
0.239217 0.594361 -0.0341074
0.187781 0.599594 -0.0361812
0.208517 0.599501 -0.0352883
0.229035 0.599415 -0.0346443
0.24936 0.599493 -0.034351
0.198161 0.604553 -0.0360739
0.218798 0.604459 -0.0352989
0.239215 0.604372 -0.034775
0.107308 0.609797 -0.0290153
0.117303 0.614782 -0.0306468
0.0972825 0.6148 -0.0276881
0.107228 0.619834 -0.0295471
0.117224 0.624789 -0.0312254
0.0972045 0.624818 -0.0282137
0.107161 0.629844 -0.0300965
0.117173 0.634818 -0.0317862
0.0971572 0.634877 -0.0286744
0.10712 0.639877 -0.0305866
0.0872801 0.639806 -0.0269558
0.117136 0.644871 -0.0322906
0.0971239 0.644934 -0.0291044
0.107085 0.649922 -0.0310787
0.0872405 0.649858 -0.0273466
0.117077 0.654929 -0.0328078
0.0971043 0.654972 -0.0295994
0.107049 0.659975 -0.0315895
0.0872216 0.659936 -0.0277712
0.117069 0.664975 -0.0333318
0.097097 0.665013 -0.0301165
0.107045 0.670029 -0.03212
0.0872226 0.670085 -0.028207
0.117068 0.675029 -0.0338922
0.0970919 0.675068 -0.0306324
0.107032 0.680082 -0.0326677
0.0872171 0.680139 -0.0287623
0.117052 0.685121 -0.0345015
0.0970845 0.685129 -0.0311818
0.107015 0.690162 -0.0332765
0.0872047 0.690205 -0.0293595
0.117049 0.695307 -0.0350899
0.0970934 0.695217 -0.0316803
0.107063 0.70031 -0.0337342
0.08726 0.700285 -0.0297638
0.117101 0.705522 -0.0355926
0.0971428 0.705341 -0.0321023
0.107103 0.710531 -0.0342407
0.0873255 0.71037 -0.0301701
0.117145 0.71561 -0.0360883
0.0971895 0.71551 -0.0325913
0.107139 0.720664 -0.0347834
0.0873789 0.720467 -0.0306363
0.117194 0.725716 -0.0366265
0.0972098 0.725733 -0.0331985
0.0776295 0.725563 -0.0284147
0.0776355 0.715499 -0.027927
0.0775898 0.705396 -0.0275276
0.0775453 0.695261 -0.0271583
0.077559 0.685194 -0.0266896
0.0873272 0.629787 -0.0265579
0.0775734 0.675123 -0.0262067
0.167891 0.609637 -0.0345585
0.14732 0.609712 -0.034135
0.126764 0.609781 -0.0330863
0.157576 0.614676 -0.0347375
0.178146 0.614591 -0.0349384
0.137001 0.614742 -0.0340017
0.167842 0.619639 -0.0352188
0.147258 0.619705 -0.0347775
0.126687 0.619764 -0.0337013
0.157528 0.624682 -0.0353789
0.178107 0.624599 -0.0356004
0.136938 0.624742 -0.0346247
0.167805 0.629652 -0.035862
0.14721 0.629715 -0.0353972
0.126625 0.629768 -0.0342971
0.157505 0.634711 -0.0359393
0.17809 0.634641 -0.0361855
0.136908 0.63475 -0.0351545
0.167805 0.639719 -0.0363728
0.147206 0.639749 -0.0358786
0.126617 0.639768 -0.0347461
0.178096 0.644737 -0.0367244
0.157507 0.64476 -0.0364806
0.136898 0.644776 -0.0356824
0.167803 0.64982 -0.0369142
0.147194 0.649821 -0.0363946
0.126624 0.649813 -0.03521
0.178098 0.654866 -0.0372962
0.157501 0.654859 -0.0370187
0.136883 0.654849 -0.0361929
0.167807 0.65997 -0.0375074
0.147191 0.659947 -0.0369498
0.126611 0.659911 -0.0357339
0.178106 0.665046 -0.0379244
0.157506 0.665016 -0.0375994
0.136879 0.664985 -0.0367362
0.187733 0.609614 -0.0368429
0.208492 0.609523 -0.035961
0.229023 0.609435 -0.0353124
0.249351 0.609513 -0.0350093
0.19812 0.614572 -0.0367355
0.218773 0.614479 -0.0359648
0.239193 0.614413 -0.035409
0.187683 0.61965 -0.0374949
0.208463 0.619555 -0.0366215
0.229005 0.619464 -0.0359752
0.249334 0.619561 -0.0356919
0.198084 0.624617 -0.0373929
0.218754 0.624517 -0.0366283
0.239178 0.624448 -0.0360755
0.18764 0.629721 -0.0381479
0.20844 0.629614 -0.0372864
0.228991 0.629513 -0.0366462
0.249321 0.629618 -0.0363848
0.198069 0.634678 -0.0379859
0.218751 0.634575 -0.0372218
0.239179 0.634512 -0.0366692
0.187624 0.63976 -0.0387383
0.208447 0.63966 -0.0378508
0.229005 0.6396 -0.0371743
0.249343 0.639704 -0.0368543
0.198065 0.644793 -0.0385615
0.218764 0.644686 -0.0377775
0.239199 0.644591 -0.0372212
0.208451 0.649804 -0.0384429
0.229024 0.649699 -0.0377554
0.187594 0.649911 -0.039346
0.249364 0.649866 -0.0373299
0.239218 0.654758 -0.037803
0.198052 0.654984 -0.0391699
0.218771 0.654862 -0.0383603
0.187573 0.660144 -0.0400061
0.208449 0.660018 -0.0390619
0.229032 0.659967 -0.0383702
0.249377 0.660031 -0.0379261
0.198046 0.665261 -0.0398521
0.218784 0.66511 -0.0390222
0.239225 0.665062 -0.0384633
0.167813 0.670164 -0.0381217
0.147192 0.670122 -0.0375147
0.126601 0.67006 -0.0362674
0.157504 0.675283 -0.0381968
0.178113 0.675254 -0.0385652
0.136878 0.675161 -0.0372786
0.167811 0.680403 -0.0387853
0.147187 0.680349 -0.038121
0.126588 0.680273 -0.0368366
0.157504 0.685433 -0.0388327
0.17812 0.685383 -0.0392221
0.136871 0.685474 -0.0378792
0.147181 0.690492 -0.0387507
0.167819 0.690443 -0.0394016
0.126553 0.690555 -0.0374689
0.157528 0.695543 -0.0393864
0.178148 0.695492 -0.0397628
[...]
POINT_DATA 9494
VECTORS alpha float
3.60367e-06 -1.82628e-08 1.62257e-07
3.51886e-06 -1.74541e-08 1.7104e-07
-3.87434e-08 1.70014e-05 -1.16437e-06
3.76456e-06 -1.79324e-08 1.18535e-07
3.43293e-06 -1.64855e-08 1.7447e-07
-3.88159e-08 1.7082e-05 -1.16929e-06
3.67856e-06 -1.69733e-08 1.21038e-07
-5.23672e-09 1.59378e-05 -1.08077e-06
3.92054e-06 -1.6954e-08 6.16246e-08
4.06818e-06 -1.65772e-08 1.9047e-08
4.51968e-06 -7.59449e-09 3.06283e-08
4.77651e-06 -4.835e-09 3.25896e-08
4.93033e-06 -8.00327e-10 1.41767e-08
4.95597e-06 -1.48757e-10 -6.02468e-09
4.96924e-06 5.15474e-10 -2.59515e-08
3.6039e-06 1.82623e-08 -1.62264e-07
3.51884e-06 1.74529e-08 -1.71034e-07
-3.87415e-08 -1.70015e-05 1.16438e-06
3.76479e-06 1.79325e-08 -1.18537e-07
4.96925e-06 -5.20499e-10 2.59653e-08
4.956e-06 1.43332e-10 6.03363e-09
4.93037e-06 7.94564e-10 -1.41669e-08
4.77663e-06 4.82662e-09 -3.26123e-08
4.51986e-06 7.59395e-09 -3.06013e-08
3.43276e-06 1.64836e-08 -1.74454e-07
-3.88139e-08 -1.7082e-05 1.16928e-06
3.67853e-06 1.69727e-08 -1.21032e-07
-5.23472e-09 -1.59379e-05 1.08075e-06
4.06841e-06 1.6574e-08 -1.9057e-08
3.92078e-06 1.69548e-08 -6.16196e-08
-5.27856e-08 1.16946e-05 -7.38665e-07
-4.93162e-08 1.18369e-05 -7.60131e-07
-4.93382e-08 1.19701e-05 -7.78365e-07
4.28842e-06 -2.28127e-08 -6.27468e-07
-4.87157e-08 1.20958e-05 -7.91766e-07
4.19056e-06 -2.34945e-08 -6.00857e-07
-4.88966e-08 1.22188e-05 -8.0461e-07
4.06731e-06 -2.48706e-08 -5.69731e-07
-7.07394e-08 1.24325e-05 -7.21275e-07
-4.9233e-08 1.23346e-05 -8.07768e-07
3.94589e-06 -2.61895e-08 -5.39155e-07
-6.33573e-08 1.25666e-05 -7.4013e-07
-5.05799e-08 1.24354e-05 -8.0447e-07
4.15212e-06 -2.12819e-08 -2.8319e-08
3.94389e-06 -2.00644e-08 -1.26825e-07
-2.92338e-08 1.57128e-05 -1.15506e-06
7.42527e-09 1.66209e-05 -1.22333e-06
3.99403e-06 -2.0147e-08 -2.75278e-08
1.66597e-08 1.67134e-05 -1.22112e-06
-2.57758e-08 1.58086e-05 -1.14704e-06
3.79671e-06 -1.89768e-08 -1.20646e-07
-7.53422e-08 1.4026e-05 -1.02895e-06
3.72762e-06 -1.84825e-08 -2.43174e-07
3.84988e-06 -1.9339e-08 -2.2824e-08
-2.16684e-08 1.58952e-05 -1.14971e-06
1.66356e-08 1.68034e-05 -1.21439e-06
3.65964e-06 -1.78761e-08 -1.13463e-07
-7.3271e-08 1.41204e-05 -1.02542e-06
3.72778e-06 -1.8672e-08 -2.05181e-08
3.5927e-06 -1.72815e-08 -2.32523e-07
1.25931e-08 1.68906e-05 -1.21293e-06
3.54372e-06 -1.75322e-08 -1.05517e-07
3.61493e-06 -1.81113e-08 -1.79543e-08
-3.58412e-08 1.59834e-05 -1.15115e-06
-8.16858e-08 1.42101e-05 -1.02646e-06
3.46403e-06 -1.6287e-08 -2.21548e-07
-4.36598e-08 1.60676e-05 -1.14582e-06
-6.90374e-09 1.69786e-05 -1.21297e-06
3.43332e-06 -1.69989e-08 -1.00184e-07
-8.14281e-08 1.429e-05 -1.02578e-06
3.51328e-06 -1.74483e-08 -1.58389e-08
-3.36884e-08 1.69196e-05 -1.16376e-06
-8.75701e-10 1.58577e-05 -1.08313e-06
2.60329e-08 1.42732e-05 -9.64744e-07
3.7021e-06 -1.89218e-08 1.68293e-07
3.86179e-06 -1.86657e-08 1.24241e-07
4.01592e-06 -1.75676e-08 6.64058e-08
4.16118e-06 -1.72062e-08 2.56692e-08
-2.56612e-08 1.68369e-05 -1.17096e-06
6.52898e-09 1.57778e-05 -1.09071e-06
3.26147e-08 1.41972e-05 -9.74784e-07
3.80943e-06 -1.96484e-08 1.80108e-07
3.96676e-06 -1.90293e-08 1.30313e-07
4.11706e-06 -1.76667e-08 7.01654e-08
4.25823e-06 -1.73004e-08 3.28363e-08
-1.96886e-08 1.67527e-05 -1.1844e-06
1.21196e-08 1.56983e-05 -1.10162e-06
3.75119e-08 1.41231e-05 -9.83327e-07
3.92964e-06 -2.02475e-08 1.86614e-07
4.08552e-06 -1.94313e-08 1.36492e-07
4.23298e-06 -1.77869e-08 7.591e-08
4.37016e-06 -1.7467e-08 4.08686e-08
-1.56422e-08 1.6668e-05 -1.19622e-06
1.58788e-08 1.56174e-05 -1.11536e-06
3.88328e-08 1.40501e-05 -9.96409e-07
4.06086e-06 -2.0919e-08 1.9447e-07
4.21628e-06 -2.00152e-08 1.4363e-07
4.36146e-06 -1.8097e-08 8.24763e-08
4.49474e-06 -1.7875e-08 4.95819e-08
-1.30236e-08 1.65823e-05 -1.20442e-06
1.81293e-08 1.5536e-05 -1.12621e-06
4.07255e-08 1.39747e-05 -1.00876e-06
4.37495e-06 -2.07843e-08 1.51816e-07
4.51923e-06 -1.86132e-08 8.93467e-08
4.64914e-06 -1.82155e-08 5.78988e-08
4.22041e-06 -2.12329e-08 2.03367e-07
1.69783e-08 1.54553e-05 -1.13663e-06
4.09139e-08 1.38977e-05 -1.02203e-06
-9.41707e-09 1.64946e-05 -1.21408e-06
4.69736e-06 -1.9389e-08 9.65705e-08
4.82611e-06 -1.89139e-08 6.42091e-08
4.39313e-06 -2.23563e-08 2.14003e-07
4.55287e-06 -2.11484e-08 1.61546e-07
-1.66239e-08 1.56096e-05 -1.15465e-06
2.01475e-08 1.65187e-05 -1.22636e-06
-6.52681e-08 1.3923e-05 -1.02501e-06
4.33564e-06 -2.32863e-08 -3.01174e-08
4.112e-06 -2.18479e-08 -1.34471e-07
3.87914e-06 -2.01635e-08 -2.56901e-07
-9.39186e-09 1.54956e-05 -1.1529e-06
2.75299e-08 1.64059e-05 -1.22738e-06
-4.95844e-08 1.38105e-05 -1.0169e-06
4.59715e-06 -2.60647e-08 -3.47413e-08
4.35136e-06 -2.45595e-08 -1.43108e-07
4.09273e-06 -2.26849e-08 -2.73218e-07
-5.90851e-09 1.53702e-05 -1.14156e-06
3.02483e-08 1.62837e-05 -1.21702e-06
-3.56397e-08 1.3686e-05 -1.01259e-06
4.82748e-06 -2.70669e-08 -3.69644e-08
4.55597e-06 -2.53241e-08 -1.5213e-07
4.27357e-06 -2.26291e-08 -2.8909e-07
-2.68208e-09 1.52446e-05 -1.13203e-06
3.23765e-08 1.61596e-05 -1.21429e-06
-3.15852e-08 1.3563e-05 -9.97876e-07
4.72094e-06 -2.29845e-08 -1.59484e-07
5.01522e-06 -2.58123e-08 -3.67323e-08
4.41836e-06 -2.01252e-08 -3.02577e-07
-6.50675e-09 1.51109e-05 -1.13249e-06
2.66241e-08 1.60275e-05 -1.22194e-06
-3.35341e-08 1.34323e-05 -9.92395e-07
5.22059e-06 -2.42064e-08 -3.99724e-08
4.89781e-06 -2.17029e-08 -1.66517e-07
4.57147e-06 -1.8641e-08 -3.1188e-07
1.43871e-08 1.58864e-05 -1.22143e-06
-1.42171e-08 1.49641e-05 -1.13363e-06
-3.79275e-08 1.329e-05 -9.87066e-07
5.39303e-06 -2.36605e-08 -4.30601e-08
5.04205e-06 -2.06282e-08 -1.74567e-07
4.69243e-06 -1.70927e-08 -3.24447e-07
-2.33102e-08 1.4808e-05 -1.12595e-06
2.345e-09 1.57256e-05 -1.22781e-06
-4.29903e-08 1.31403e-05 -9.72897e-07
4.17307e-08 1.38162e-05 -1.0306e-06
-6.46649e-09 1.63979e-05 -1.21837e-06
2.24624e-08 1.53642e-05 -1.1464e-06
4.59771e-06 -2.36722e-08 2.27994e-07
4.76551e-06 -2.25986e-08 1.7412e-07
4.91487e-06 -1.99343e-08 1.09434e-07
5.04366e-06 -1.97515e-08 8.0251e-08
-7.38781e-10 1.62917e-05 -1.21687e-06
2.4475e-08 1.5269e-05 -1.1457e-06
4.49232e-08 1.37287e-05 -1.03551e-06
4.89134e-06 -2.59164e-08 2.46788e-07
5.07482e-06 -2.49119e-08 1.90253e-07
5.236e-06 -2.21987e-08 1.22366e-07
5.37247e-06 -2.27537e-08 9.198e-08
2.38268e-09 1.61754e-05 -1.21252e-06
2.64842e-08 1.51593e-05 -1.14585e-06
4.50873e-08 1.36309e-05 -1.03722e-06
5.15541e-06 -2.65616e-08 2.63664e-07
5.35691e-06 -2.4838e-08 2.00904e-07
5.53451e-06 -2.27958e-08 1.3455e-07
5.68195e-06 -2.37358e-08 1.07309e-07
5.95876e-09 1.60699e-05 -1.20126e-06
2.79947e-08 1.50618e-05 -1.13762e-06
4.48213e-08 1.35435e-05 -1.03189e-06
5.3734e-06 -2.54101e-08 2.77126e-07
5.59262e-06 -2.37525e-08 2.14053e-07
5.78431e-06 -2.08748e-08 1.44889e-07
5.94239e-06 -2.14317e-08 1.24102e-07
8.09579e-09 1.59498e-05 -1.19701e-06
2.69965e-08 1.4955e-05 -1.13274e-06
4.21074e-08 1.34483e-05 -1.02931e-06
5.61991e-06 -2.47403e-08 2.92126e-07
5.8671e-06 -2.32957e-08 2.28672e-07
6.08475e-06 -2.05742e-08 1.5844e-07
6.26432e-06 -2.07322e-08 1.42491e-07
8.68495e-09 1.58165e-05 -1.18997e-06
2.4342e-08 1.48323e-05 -1.1288e-06
3.69277e-08 1.33391e-05 -1.0286e-06
5.83222e-06 -2.41179e-08 3.00734e-07
6.11026e-06 -2.31068e-08 2.39297e-07
6.35796e-06 -2.07789e-08 1.70344e-07
6.56379e-06 -1.99694e-08 1.60329e-07
8.33549e-09 1.56653e-05 -1.18468e-06
2.091e-08 1.46917e-05 -1.12632e-06
3.11301e-08 1.32127e-05 -1.02885e-06
4.36088e-06 -2.13923e-08 -6.5111e-07
-3.19028e-08 1.15415e-05 -7.32552e-07
-5.30116e-08 1.22937e-05 -7.09219e-07
4.38092e-06 -1.95787e-08 -6.65977e-07
-1.22205e-08 1.13914e-05 -7.14714e-07
-3.67534e-08 1.21638e-05 -6.91805e-07
4.36848e-06 -1.85706e-08 -6.76592e-07
4.59877e-09 1.12525e-05 -6.89805e-07
-1.80785e-08 1.20502e-05 -6.76934e-07
4.29168e-06 -1.62422e-08 -6.75527e-07
3.99483e-06 -2.03953e-08 -8.64389e-07
2.1877e-08 1.11296e-05 -6.66623e-07
1.0622e-08 1.19471e-05 -6.74633e-07
4.20566e-06 -1.545e-08 -6.71045e-07
3.95685e-06 -1.79332e-08 -8.68499e-07
4.98827e-08 1.10318e-05 -6.48938e-07
2.61318e-08 1.18664e-05 -6.63586e-07
4.08391e-06 -1.36669e-08 -6.60266e-07
3.90199e-06 -1.57815e-08 -8.68869e-07
6.41049e-08 1.09725e-05 -6.32601e-07
4.21753e-08 1.1823e-05 -6.53026e-07
4.00672e-06 -1.37518e-08 -6.54914e-07
3.89525e-06 -1.36721e-08 -8.80355e-07
7.92527e-08 1.09592e-05 -6.15675e-07
6.18166e-08 1.18189e-05 -6.35154e-07
4.14008e-06 -1.48177e-08 -6.83326e-07
4.06406e-06 -1.48334e-08 -9.31225e-07
9.53131e-08 1.09777e-05 -6.0436e-07
8.12408e-08 1.18344e-05 -6.13983e-07
4.26229e-06 -1.56369e-08 -7.09272e-07
4.23764e-06 -1.70082e-08 -9.81072e-07
1.10256e-07 1.10339e-05 -5.9577e-07
1.01174e-07 1.18794e-05 -5.92032e-07
4.57523e-06 -7.94637e-09 -7.65028e-07
4.57246e-06 -8.79516e-09 -1.06442e-06
1.19871e-07 1.11188e-05 -5.92007e-07
1.17792e-07 1.19442e-05 -5.79566e-07
5.14177e-06 2.5957e-09 -8.67453e-07
5.11301e-06 1.27318e-10 -1.19374e-06
1.26098e-07 1.12167e-05 -5.98257e-07
1.21453e-07 1.20014e-05 -5.9977e-07
6.04919e-06 1.03392e-08 -1.02282e-06
5.92558e-06 1.11115e-08 -1.38709e-06
1.19012e-07 1.12998e-05 -6.1866e-07
1.0605e-07 1.20188e-05 -6.60322e-07
1.52939e-07 1.76184e-05 -9.03189e-07
1.71191e-07 1.76937e-05 -8.38633e-07
1.58722e-07 1.77053e-05 -8.04268e-07
1.27427e-07 1.76521e-05 -8.23987e-07
9.05532e-08 1.76347e-05 -8.49578e-07
4.03512e-06 -2.38759e-08 -8.60331e-07
5.74424e-08 1.76576e-05 -8.72402e-07
5.52505e-06 -2.30281e-08 -4.76312e-08
5.14928e-06 -1.94751e-08 -1.82938e-07
4.78426e-06 -1.55862e-08 -3.33558e-07
-8.24079e-09 1.46377e-05 -1.10206e-06
1.53768e-08 1.55525e-05 -1.20343e-06
-2.69043e-08 1.29794e-05 -9.49496e-07
5.56965e-06 -2.22357e-08 -5.25974e-08
5.17867e-06 -1.81816e-08 -1.89436e-07
4.80707e-06 -1.38992e-08 -3.42109e-07
6.89275e-09 1.44613e-05 -1.07255e-06
2.80876e-08 1.53695e-05 -1.17143e-06
-1.05348e-08 1.28166e-05 -9.22976e-07
5.54043e-06 -2.21232e-08 -5.88668e-08
5.14718e-06 -1.75225e-08 -1.9527e-07
4.78275e-06 -1.26946e-08 -3.48322e-07
2.08483e-08 1.42909e-05 -1.0459e-06
3.955e-08 1.51861e-05 -1.1421e-06
4.91855e-09 1.2665e-05 -8.98363e-07
5.38297e-06 -1.4891e-08 -6.39512e-08
5.00712e-06 -1.03853e-08 -1.96621e-07
4.6705e-06 -5.69571e-09 -3.47487e-07
4.61372e-08 1.50118e-05 -1.12546e-06
3.07462e-08 1.41332e-05 -1.03322e-06
1.54926e-08 1.25332e-05 -8.89232e-07
5.16306e-06 -9.59683e-09 -6.64794e-08
4.82499e-06 -5.08468e-09 -1.94078e-07
4.53248e-06 -4.72439e-10 -3.43822e-07
5.97909e-08 1.48529e-05 -1.10453e-06
4.65244e-08 1.40004e-05 -1.0152e-06
3.17784e-08 1.24295e-05 -8.75808e-07
4.82925e-06 -6.65511e-09 -6.94193e-08
4.55676e-06 -2.09372e-09 -1.89499e-07
4.33733e-06 2.39706e-09 -3.34544e-07
5.92571e-08 1.47201e-05 -1.08987e-06
4.95735e-08 1.38995e-05 -1.00356e-06
3.74056e-08 1.23611e-05 -8.68357e-07
6.00241e-06 -2.35861e-08 3.05214e-07
6.31223e-06 -2.29642e-08 2.46605e-07
6.59266e-06 -2.11051e-08 1.7961e-07
6.82882e-06 -1.81241e-08 1.7576e-07
1.66603e-08 1.54978e-05 -1.17091e-06
2.61673e-08 1.45344e-05 -1.11609e-06
3.23216e-08 1.30753e-05 -1.02011e-06
6.07712e-06 -2.29801e-08 3.04206e-07
6.41539e-06 -2.29801e-08 2.4846e-07
6.72808e-06 -2.17214e-08 1.83991e-07
6.99539e-06 -1.55867e-08 1.90502e-07
2.52662e-08 1.53137e-05 -1.15496e-06
3.15978e-08 1.43584e-05 -1.10259e-06
3.48248e-08 1.29136e-05 -1.01061e-06
6.06542e-06 -2.32505e-08 2.97799e-07
6.42358e-06 -2.39119e-08 2.44731e-07
6.76245e-06 -2.3434e-08 1.82464e-07
7.05863e-06 -1.41468e-08 1.96989e-07
3.27124e-08 1.51367e-05 -1.14004e-06
3.61071e-08 1.41835e-05 -1.09036e-06
3.64927e-08 1.27478e-05 -1.00372e-06
5.90725e-06 -1.92543e-08 2.96138e-07
6.27158e-06 -1.97792e-08 2.44497e-07
6.62544e-06 -1.77254e-08 1.81039e-07
6.94563e-06 -7.34538e-09 2.00834e-07
3.70994e-08 1.4973e-05 -1.13295e-06
3.86386e-08 1.40133e-05 -1.08402e-06
3.87552e-08 1.25746e-05 -9.97695e-07
6.01494e-06 -1.68617e-08 2.3885e-07
6.36928e-06 -1.56797e-08 1.80057e-07
5.6639e-06 -1.6821e-08 2.89974e-07
6.70089e-06 -3.15777e-09 1.95346e-07
3.96388e-08 1.23968e-05 -9.89134e-07
4.315e-08 1.48128e-05 -1.13371e-06
4.40755e-08 1.38404e-05 -1.08067e-06
5.27459e-06 -1.64136e-08 2.72457e-07
5.58795e-06 -1.58439e-08 2.23535e-07
5.91899e-06 -1.27398e-08 1.64043e-07
6.2488e-06 -3.39947e-09 1.85224e-07
4.47616e-08 1.46643e-05 -1.13729e-06
4.5179e-08 1.36723e-05 -1.07674e-06
4.04112e-08 1.22249e-05 -9.9498e-07
4.48813e-06 -5.61472e-09 -7.20107e-08
4.30396e-06 -9.31731e-10 -1.85207e-07
4.17543e-06 3.7904e-09 -3.2646e-07
6.11361e-08 1.3843e-05 -9.8598e-07
7.1636e-08 1.46222e-05 -1.05196e-06
5.4882e-08 1.23355e-05 -8.48167e-07
4.41075e-06 -7.25116e-09 -8.01543e-08
4.30926e-06 -2.14853e-09 -1.92436e-07
4.25486e-06 3.03858e-09 -3.37371e-07
7.95932e-08 1.38139e-05 -9.29667e-07
8.79048e-08 1.45587e-05 -9.74144e-07
6.70965e-08 1.23466e-05 -8.36912e-07
4.25421e-06 -7.03478e-09 -1.92594e-07
4.24336e-06 -1.32547e-08 -7.62439e-08
4.30245e-06 2.01524e-10 -3.46017e-07
1.012e-07 1.38396e-05 -8.41975e-07
1.0729e-07 1.4551e-05 -8.63987e-07
8.89017e-08 1.23974e-05 -7.73209e-07
4.42514e-06 -4.03478e-09 -1.88966e-07
4.30063e-06 -1.06329e-08 -6.58607e-08
4.56447e-06 3.43341e-09 -3.56062e-07
1.23803e-07 1.39258e-05 -7.28413e-07
1.25676e-07 1.46105e-05 -7.45711e-07
1.13695e-07 1.24972e-05 -6.70625e-07
4.9299e-06 -2.26766e-09 -1.98379e-07
4.71303e-06 -1.00395e-08 -5.71586e-08
5.12771e-06 6.08694e-09 -3.91512e-07
1.34659e-07 1.40628e-05 -6.80678e-07
1.33392e-07 1.47322e-05 -6.91841e-07
1.26356e-07 1.26316e-05 -6.31587e-07
5.89332e-06 -1.34531e-09 -2.33046e-07
5.62247e-06 -1.17636e-08 -5.95866e-08
6.09731e-06 9.79999e-09 -4.67856e-07
1.25523e-07 1.49033e-05 -7.08903e-07
1.21071e-07 1.27716e-05 -6.63769e-07
1.2847e-07 1.42303e-05 -7.12688e-07
4.84977e-06 -1.77062e-08 2.51741e-07
5.09838e-06 -1.65709e-08 2.03982e-07
5.38145e-06 -1.30761e-08 1.47166e-07
5.6816e-06 -2.82877e-09 1.59524e-07
5.74268e-08 1.45329e-05 -1.0868e-06
4.9093e-08 1.35241e-05 -1.05819e-06
4.06525e-08 1.2059e-05 -9.7852e-07
4.69006e-06 -2.1445e-08 2.48719e-07
4.85813e-06 -1.97901e-08 1.951e-07
5.07298e-06 -1.66433e-08 1.38525e-07
5.32269e-06 -7.06507e-09 1.44187e-07
7.69979e-08 1.44255e-05 -9.91719e-07
6.26892e-08 1.33885e-05 -9.60142e-07
4.82381e-08 1.19059e-05 -8.89143e-07
4.40294e-06 -2.69351e-08 2.41694e-07
4.45849e-06 -2.48056e-08 1.84012e-07
4.57395e-06 -2.08552e-08 1.27061e-07
4.74504e-06 -1.31266e-08 1.2465e-07
9.70672e-08 1.43973e-05 -8.6198e-07
7.61742e-08 1.33245e-05 -8.4255e-07
5.55819e-08 1.18112e-05 -7.87658e-07
4.33645e-06 -2.40463e-08 2.45636e-07
4.26008e-06 -2.11726e-08 1.85446e-07
4.25234e-06 -1.65755e-08 1.29893e-07
4.32073e-06 -1.0999e-08 1.10069e-07
1.21835e-07 1.44474e-05 -6.72362e-07
9.35347e-08 1.33335e-05 -6.73707e-07
6.58613e-08 1.17795e-05 -6.41457e-07
4.64442e-06 -2.64029e-08 2.66306e-07
4.43014e-06 -2.12016e-08 1.97811e-07
4.28622e-06 -1.6442e-08 1.413e-07
4.23269e-06 -1.16066e-08 1.05694e-07
1.3897e-07 1.45624e-05 -5.6228e-07
1.04397e-07 1.34081e-05 -5.71415e-07
7.06857e-08 1.18115e-05 -5.53637e-07
5.48931e-06 -3.31525e-08 3.13781e-07
5.14147e-06 -2.55351e-08 2.3408e-07
4.85368e-06 -1.88118e-08 1.69251e-07
4.6651e-06 -1.55928e-08 1.12175e-07
1.43157e-07 1.47345e-05 -5.55349e-07
1.04793e-07 1.35471e-05 -5.62446e-07
6.74541e-08 1.19094e-05 -5.46875e-07
1.06616e-08 1.25467e-05 -9.06545e-07
4.26963e-06 -1.34178e-08 4.54503e-08
1.49233e-08 1.24789e-05 -9.10937e-07
1.96686e-08 1.08156e-05 -7.82672e-07
4.3704e-06 -1.4244e-08 4.82152e-08
4.4866e-06 -1.24944e-08 1.92074e-08
4.59277e-06 -1.04415e-08 -7.76378e-09
1.74672e-08 1.24133e-05 -9.09957e-07
2.2722e-08 1.07529e-05 -7.8283e-07
2.48977e-08 9.29433e-06 -6.71288e-07
4.48471e-06 -1.47954e-08 5.19882e-08
4.59751e-06 -1.27255e-08 2.29367e-08
4.70043e-06 -1.03379e-08 -3.94514e-09
2.1116e-08 1.23436e-05 -9.15542e-07
2.54284e-08 1.06883e-05 -7.87414e-07
2.68731e-08 9.23446e-06 -6.75045e-07
4.61142e-06 -1.55769e-08 5.61579e-08
4.72021e-06 -1.31836e-08 2.69517e-08
4.81901e-06 -1.04585e-08 8.45273e-11
2.45784e-08 1.22736e-05 -9.18394e-07
2.79244e-08 1.06237e-05 -7.89825e-07
2.86175e-08 9.17477e-06 -6.7723e-07
4.76926e-06 -1.63632e-08 5.96599e-08
4.87329e-06 -1.39344e-08 3.10614e-08
4.96744e-06 -1.08412e-08 4.0632e-09
2.99283e-08 9.11443e-06 -6.80725e-07
2.97514e-08 1.22008e-05 -9.2499e-07
4.95155e-06 -1.77257e-08 6.68062e-08
5.05214e-06 -1.45642e-08 3.75444e-08
5.14119e-06 -1.104e-08 1.11262e-08
3.17396e-08 1.0557e-05 -7.95301e-07
2.3919e-08 9.35118e-06 -6.73687e-07
4.38805e-06 -1.20063e-08 1.73483e-08
4.49675e-06 -1.03668e-08 -1.01704e-08
1.79265e-08 1.08775e-05 -7.81399e-07
2.14986e-08 9.40987e-06 -6.71142e-07
1.40244e-08 8.15952e-06 -5.9439e-07
1.23002e-08 7.08212e-06 -5.14757e-07
1.06809e-08 6.11886e-06 -4.44174e-07
4.62036e-06 -8.15721e-09 3.1202e-08
4.71154e-06 -7.20363e-09 9.83827e-09
4.79194e-06 -6.10765e-09 -1.10986e-08
1.57646e-08 8.10779e-06 -5.89651e-07
1.42218e-08 7.03369e-06 -5.12869e-07
1.19806e-08 6.07562e-06 -4.41914e-07
4.71956e-06 -8.6106e-09 3.16224e-08
4.8095e-06 -7.43679e-09 1.08284e-08
4.88997e-06 -6.03108e-09 -1.02607e-08
1.8129e-08 8.05452e-06 -5.88485e-07
1.58077e-08 6.98512e-06 -5.09917e-07
1.29854e-08 6.03203e-06 -4.38877e-07
4.82988e-06 -8.76501e-09 3.47504e-08
4.91886e-06 -7.37037e-09 1.36391e-08
4.99892e-06 -5.68346e-09 -7.39007e-09
2.00833e-08 7.99964e-06 -5.90133e-07
1.70627e-08 6.9348e-06 -5.10822e-07
1.37164e-08 5.98659e-06 -4.39271e-07
4.95034e-06 -9.09999e-09 3.77549e-08
5.03741e-06 -7.46334e-09 1.65992e-08
5.11618e-06 -5.48822e-09 -4.3911e-09
2.1807e-08 7.94482e-06 -5.90455e-07
1.74951e-08 6.88583e-06 -5.09068e-07
1.42665e-08 5.94077e-06 -4.39296e-07
5.10021e-06 -9.49092e-09 4.12009e-08
5.18541e-06 -7.32929e-09 2.00892e-08
5.26203e-06 -4.98533e-09 -3.11726e-10
2.30985e-08 7.88981e-06 -5.92411e-07
1.81988e-08 6.83521e-06 -5.10536e-07
1.40772e-08 5.89594e-06 -4.38717e-07
5.27574e-06 -9.92651e-09 4.50182e-08
5.35794e-06 -7.48671e-09 2.36382e-08
5.43192e-06 -4.85628e-09 3.1188e-09
3.22982e-08 1.21247e-05 -9.29657e-07
3.1837e-08 1.04909e-05 -7.97761e-07
3.06329e-08 9.05358e-06 -6.83982e-07
5.17777e-06 -1.96306e-08 7.27919e-08
5.27677e-06 -1.62369e-08 4.29302e-08
5.36255e-06 -1.2465e-08 1.61619e-08
3.35028e-08 1.20446e-05 -9.30675e-07
3.26293e-08 1.04175e-05 -8.01544e-07
3.02897e-08 8.98807e-06 -6.8757e-07
5.5197e-06 -2.20998e-08 7.92604e-08
5.62082e-06 -1.84482e-08 4.90792e-08
5.70582e-06 -1.4403e-08 2.22684e-08
3.40466e-08 1.19556e-05 -9.32239e-07
3.1872e-08 1.03401e-05 -8.02811e-07
2.85886e-08 8.92032e-06 -6.88471e-07
5.84695e-06 -2.30434e-08 8.90091e-08
5.95347e-06 -1.91034e-08 5.78955e-08
6.04042e-06 -1.47391e-08 3.03693e-08
3.57759e-08 1.18886e-05 -9.25342e-07
3.20116e-08 1.02816e-05 -7.99146e-07
2.76113e-08 8.8691e-06 -6.87151e-07
6.12709e-06 -2.16797e-08 1.01684e-07
6.23914e-06 -1.74498e-08 7.05664e-08
6.32791e-06 -1.27679e-08 4.3215e-08
3.67821e-08 1.18138e-05 -9.2239e-07
3.15346e-08 1.02174e-05 -7.98877e-07
2.61086e-08 8.81409e-06 -6.88814e-07
6.48014e-06 -2.07352e-08 1.15869e-07
6.608e-06 -1.62727e-08 8.4433e-08
6.70772e-06 -1.13143e-08 5.68557e-08
3.76069e-08 1.17243e-05 -9.20539e-07
3.09477e-08 1.0141e-05 -7.99382e-07
2.45595e-08 8.74949e-06 -6.91122e-07
6.81672e-06 -1.99885e-08 1.29996e-07
6.96577e-06 -1.54414e-08 9.83394e-08
7.08148e-06 -1.03525e-08 7.05138e-08
3.81376e-08 1.16189e-05 -9.19727e-07
2.97377e-08 1.00511e-05 -8.0135e-07
2.21638e-08 8.67398e-06 -6.95404e-07
1.41421e-08 5.84891e-06 -4.40818e-07
2.50954e-08 7.83479e-06 -5.92754e-07
1.98449e-08 6.7827e-06 -5.12951e-07
5.65081e-06 -5.18108e-09 6.8013e-09
5.50195e-06 -1.01309e-08 5.06157e-08
5.5799e-06 -7.87883e-09 2.89941e-08
2.6209e-08 7.77585e-06 -5.94983e-07
1.97687e-08 6.7308e-06 -5.13299e-07
1.44723e-08 5.80072e-06 -4.41667e-07
5.85064e-06 -1.11357e-08 5.6597e-08
5.92736e-06 -8.35001e-09 3.43025e-08
5.9951e-06 -5.35946e-09 1.31786e-08
2.62932e-08 7.71601e-06 -5.94285e-07
1.98123e-08 6.67477e-06 -5.1528e-07
1.40457e-08 5.75021e-06 -4.43707e-07
6.19446e-06 -1.11993e-08 6.18287e-08
6.27091e-06 -8.21091e-09 3.86995e-08
6.33711e-06 -5.00942e-09 1.68759e-08
2.67175e-08 7.67294e-06 -5.92278e-07
1.96439e-08 6.63585e-06 -5.13516e-07
1.34674e-08 5.71491e-06 -4.42063e-07
6.49052e-06 -9.46856e-09 6.58147e-08
6.56473e-06 -6.88239e-09 4.268e-08
6.62816e-06 -3.41526e-09 2.0608e-08