# vtk DataFile Version 3.0
vtk output
ASCII
DATASET POLYDATA
POINTS 20503 float
0.17183 0.964805 -0.0553607
0.160962 0.969899 -0.0552983
0.172023 0.954825 -0.0546954
0.161178 0.959918 -0.0546282
0.172207 0.944836 -0.0540495
0.161332 0.94993 -0.0540594
0.150444 0.965012 -0.0541128
0.150604 0.955028 -0.0535793
0.172383 0.934855 -0.0533867
0.161555 0.939945 -0.0534054
0.172533 0.924864 -0.0528383
0.150809 0.945044 -0.0529568
0.139881 0.970113 -0.0529834
0.161747 0.929963 -0.0527678
0.182574 0.969696 -0.0556995
0.182746 0.959714 -0.0550595
0.182909 0.94973 -0.0544078
0.183064 0.939741 -0.0537733
0.20393 0.969484 -0.055834
0.193263 0.964595 -0.0556039
0.214668 0.964392 -0.0554739
0.225195 0.969294 -0.0556685
0.20406 0.959506 -0.0551921
0.225287 0.959312 -0.0550321
0.235712 0.964216 -0.0552349
0.204171 0.949517 -0.0546112
0.193441 0.954618 -0.0548846
0.214768 0.954413 -0.0548691
0.235787 0.954235 -0.0546122
0.193576 0.94463 -0.0542847
0.214869 0.944427 -0.0542436
0.225377 0.949329 -0.0543953
0.204309 0.939533 -0.0539787
0.225469 0.939343 -0.0537544
0.235875 0.944254 -0.0539563
0.193717 0.934649 -0.0536513
0.204424 0.929549 -0.0533539
0.214981 0.934448 -0.0535902
0.235961 0.934273 -0.053307
0.193853 0.924661 -0.0530403
0.215103 0.92446 -0.0529491
0.183207 0.92976 -0.053142
0.225564 0.929366 -0.053087
0.204554 0.919565 -0.0527164
0.236056 0.92429 -0.0526679
0.17167 0.974788 -0.0559704
0.150242 0.974997 -0.0546999
0.160755 0.979884 -0.0559421
0.139583 0.9801 -0.0536282
0.171494 0.984778 -0.0565524
0.150014 0.984987 -0.055275
0.160581 0.98987 -0.0565597
0.139272 0.990086 -0.054316
0.171318 0.994755 -0.0571931
0.149817 0.994966 -0.0558445
0.160376 0.999849 -0.0571256
0.139019 1.00008 -0.0549165
0.171097 1.00474 -0.0578526
0.149627 1.00495 -0.0563567
0.160179 1.00984 -0.0577031
0.138792 1.01007 -0.0555149
0.170904 1.01472 -0.0584609
0.149416 1.01494 -0.0569202
0.159951 1.01981 -0.0583105
0.138578 1.02005 -0.0560915
0.170726 1.02471 -0.059057
0.149179 1.02493 -0.0575589
0.159747 1.0298 -0.0588964
0.13836 1.03004 -0.0566989
0.127971 1.02517 -0.054753
0.128254 1.01518 -0.0541226
0.128519 1.00518 -0.0535185
0.128835 0.995196 -0.0528367
0.193111 0.974577 -0.0562516
0.21458 0.974379 -0.0560507
0.235629 0.974198 -0.0558785
0.182417 0.979683 -0.0563201
0.182265 0.989661 -0.0569532
0.182097 0.999643 -0.0575821
0.181927 1.00963 -0.0581902
0.181722 1.01961 -0.0588572
0.181531 1.0296 -0.0594931
0.203805 0.979472 -0.0564088
0.225099 0.979275 -0.0562777
0.192958 0.984564 -0.0568855
0.214444 0.984359 -0.0566923
0.235539 0.984182 -0.056526
0.203677 0.989452 -0.0570348
0.225009 0.989254 -0.0569031
0.192811 0.994542 -0.0575122
0.214329 0.99434 -0.0572957
0.235455 0.99416 -0.0571673
0.203521 0.999432 -0.0576847
0.224899 0.999234 -0.0575239
0.192677 1.00453 -0.0580649
0.214207 1.00433 -0.0578868
0.235358 1.00414 -0.0577848
0.203379 1.00942 -0.0583145
0.224793 1.00922 -0.0581126
0.19251 1.01451 -0.0586974
0.19237 1.02449 -0.0593165
0.192202 1.03448 -0.0599713
0.214071 1.01431 -0.0584712
0.235255 1.01412 -0.0584164
0.203213 1.01939 -0.0589984
0.224671 1.01919 -0.0587336
0.213953 1.02429 -0.0590654
0.235158 1.0241 -0.0590158
0.203064 1.02937 -0.0596422
0.224566 1.02918 -0.0593096
0.213814 1.03427 -0.0597174
0.235052 1.03408 -0.0596495
0.246045 0.969118 -0.0555812
0.246131 0.959142 -0.0549181
0.246201 0.949154 -0.0542791
0.24628 0.939173 -0.0536293
0.287271 0.968835 -0.0559523
0.307705 0.968732 -0.0559754
0.277082 0.963909 -0.0554615
0.297513 0.963795 -0.0557015
0.266728 0.96896 -0.0556805
0.297571 0.953819 -0.0550092
0.256396 0.964039 -0.0552734
0.266805 0.958984 -0.05502
0.287334 0.958865 -0.0552955
0.307759 0.958763 -0.055293
0.28739 0.948883 -0.0546581
0.307809 0.94878 -0.0546485
0.256488 0.954062 -0.054616
0.277151 0.953938 -0.0547969
0.277214 0.943958 -0.0541339
0.297635 0.943844 -0.0543572
0.266894 0.949009 -0.0544006
0.297693 0.933862 -0.0537236
0.26697 0.939028 -0.0537483
0.287458 0.938908 -0.0540245
0.307871 0.938804 -0.0540122
0.256583 0.944088 -0.0539795
0.287521 0.928931 -0.0533942
0.30793 0.928827 -0.053384
0.25666 0.93411 -0.0533641
0.27728 0.933986 -0.0535114
0.246375 0.929192 -0.0529806
0.277344 0.924006 -0.0528861
0.297753 0.923893 -0.0530916
0.267051 0.929058 -0.0531237
0.267128 0.919078 -0.0524787
0.28759 0.918956 -0.0527768
0.307992 0.918852 -0.052761
0.25676 0.924136 -0.0527745
0.348394 0.968526 -0.0564171
0.368666 0.968457 -0.0565283
0.338246 0.96358 -0.0560922
0.358545 0.963502 -0.0561514
0.328062 0.968619 -0.0563314
0.358568 0.953528 -0.0555162
0.328109 0.958644 -0.0556671
0.348431 0.958557 -0.0557507
0.368692 0.958489 -0.0558607
0.317923 0.963685 -0.0558181
0.348454 0.948576 -0.0551273
0.368708 0.948509 -0.0552308
0.317973 0.953708 -0.0551614
0.338279 0.95361 -0.055453
0.338316 0.943631 -0.0548047
0.358595 0.943554 -0.0548634
0.328151 0.948669 -0.0550244
0.358627 0.933575 -0.0542369
0.328195 0.93869 -0.0543757
0.34849 0.938603 -0.054468
0.368738 0.938536 -0.0545695
0.318021 0.943733 -0.0545056
0.348522 0.928628 -0.0538393
0.368764 0.928562 -0.0539367
0.318062 0.933752 -0.0538922
0.338355 0.933656 -0.0541718
0.358667 0.923606 -0.0535837
0.338394 0.923683 -0.0535148
0.328241 0.92872 -0.0537391
0.358697 0.913628 -0.0529337
0.32828 0.918741 -0.0530975
0.348559 0.918655 -0.0531819
0.368797 0.918589 -0.053277
0.31811 0.923785 -0.0532309
0.348597 0.908675 -0.0525568
0.368828 0.90861 -0.0526459
0.318167 0.913804 -0.0526014
0.338436 0.913707 -0.0528896
0.245961 0.9791 -0.0562121
0.245893 0.989078 -0.0568464
0.245805 0.999058 -0.057484
0.245714 1.00904 -0.0581108
0.245622 1.01902 -0.0587578
0.245533 1.029 -0.059392
0.297448 0.973771 -0.0563224
0.256281 0.974013 -0.0559206
0.277014 0.97389 -0.0561142
0.266635 0.978933 -0.0563135
0.287209 0.978816 -0.0565868
0.307655 0.978713 -0.0566109
0.297394 0.98375 -0.0569631
0.276927 0.983861 -0.056767
0.256186 0.983992 -0.0565562
0.28714 0.988786 -0.0572136
0.307597 0.988683 -0.0572531
0.266556 0.988909 -0.0569373
0.256112 0.993968 -0.0571997
0.297317 0.993722 -0.0576077
0.276852 0.993838 -0.0574112
0.266443 0.998882 -0.0575642
0.287066 0.998767 -0.0578684
0.307536 0.998664 -0.0579085
0.256032 1.00395 -0.0578439
0.276744 1.00381 -0.0580493
0.297244 1.0037 -0.0582428
0.28696 1.00874 -0.0585199
0.307452 1.00864 -0.058551
0.26634 1.00886 -0.058187
0.255959 1.01393 -0.0584934
0.297155 1.01367 -0.0588921
0.276657 1.01379 -0.0586824
0.255892 1.02391 -0.0591144
0.255826 1.03389 -0.0597646
0.266209 1.01883 -0.0588234
0.286887 1.01872 -0.0591737
0.30739 1.01862 -0.0592188
0.27655 1.02376 -0.0592868
0.297093 1.02366 -0.0595077
0.28679 1.02869 -0.0598237
0.30731 1.02859 -0.0598635
0.266115 1.02881 -0.0594483
0.29701 1.03363 -0.06014
0.276467 1.03374 -0.0599167
0.317863 0.97366 -0.0564756
0.338206 0.973561 -0.0567127
0.358514 0.973482 -0.0567747
0.32801 0.97859 -0.0569834
0.348362 0.978503 -0.057058
0.368641 0.978434 -0.0571786
0.338166 0.983532 -0.05737
0.358482 0.983453 -0.0574378
0.317815 0.983638 -0.0571481
0.368614 0.988403 -0.0578394
0.327964 0.988567 -0.0576073
0.348333 0.988479 -0.0576883
0.317755 0.993612 -0.0577748
0.338121 0.993509 -0.0580123
0.358448 0.993429 -0.058089
0.327899 0.998541 -0.0582694
0.348283 0.998453 -0.0583532
0.368586 0.998382 -0.0585027
0.317701 1.00359 -0.0584168
0.338065 1.00348 -0.0586697
0.358412 1.0034 -0.0587483
0.368553 1.00836 -0.059165
0.32785 1.00852 -0.0588937
0.348242 1.00843 -0.0589874
0.317633 1.01356 -0.0590888
0.338016 1.01346 -0.0593416
0.358376 1.01338 -0.0594219
0.327789 1.01849 -0.0595812
0.348198 1.0184 -0.0596743
0.368521 1.01833 -0.0598396
0.317583 1.02355 -0.0597237
0.317523 1.03352 -0.0603759
0.337966 1.02343 -0.0599917
0.358342 1.02335 -0.0600759
0.368489 1.0283 -0.060515
0.327739 1.02847 -0.0602487
0.348157 1.02838 -0.0603309
0.33792 1.03341 -0.0606521
0.358303 1.03333 -0.0607415
0.388916 0.968401 -0.0565366
0.409102 0.968356 -0.0566529
0.429337 0.968326 -0.0566436
0.40912 0.958384 -0.0559822
0.378701 0.963437 -0.0562356
0.399029 0.963391 -0.0562645
0.419242 0.963351 -0.0563828
0.378739 0.953465 -0.0555943
0.39905 0.953418 -0.0556121
0.419259 0.953379 -0.0557184
0.388962 0.958434 -0.0558736
0.429356 0.958359 -0.055971
0.388986 0.948454 -0.0552562
0.409146 0.94841 -0.0553617
0.429367 0.94838 -0.0553365
0.409163 0.938433 -0.0547062
0.429384 0.938403 -0.0546756
0.378803 0.943493 -0.0549597
0.399087 0.943446 -0.0549741
0.419284 0.943407 -0.0550729
0.37884 0.933515 -0.0543269
0.399107 0.933467 -0.054339
0.419301 0.933428 -0.0544288
0.389028 0.938482 -0.0546107
0.389052 0.928508 -0.0539709
0.409191 0.928465 -0.0540645
0.429402 0.928435 -0.0540251
0.378902 0.923547 -0.0536848
0.409209 0.918488 -0.0534127
0.429417 0.918459 -0.0533699
0.399144 0.9235 -0.0536881
0.419327 0.923461 -0.0537717
0.378941 0.91357 -0.0530398
0.419343 0.913484 -0.0531234
0.399167 0.913523 -0.0530399
0.389096 0.918537 -0.0533275
0.389129 0.908559 -0.0526936
0.409244 0.908515 -0.0527701
0.429435 0.908486 -0.0527184
0.449522 0.968297 -0.0567018
0.469698 0.968284 -0.0566608
0.489854 0.968281 -0.0566031
0.449535 0.95832 -0.0560425
0.439406 0.963326 -0.0562939
0.459613 0.9633 -0.0564414
0.479776 0.963296 -0.0562907
0.439426 0.953354 -0.0556301
0.459626 0.953328 -0.0557768
0.479785 0.953324 -0.0556255
0.469702 0.958312 -0.0559969
0.489847 0.958309 -0.0559394
0.449548 0.948351 -0.055395
0.469709 0.948339 -0.0553501
0.489851 0.948335 -0.0552927
0.449559 0.938375 -0.0547312
0.439448 0.943382 -0.054972
0.459632 0.943356 -0.0551207
0.479782 0.943352 -0.0549687
0.439465 0.933404 -0.0543246
0.459642 0.933378 -0.054474
0.479788 0.933374 -0.0543225
0.469714 0.938367 -0.0546837
0.489848 0.938364 -0.0546275
0.449575 0.928407 -0.0540778
0.469724 0.928394 -0.0540351
0.489855 0.928391 -0.0539806
0.439492 0.923436 -0.0536597
0.449587 0.918431 -0.0534203
0.469731 0.918418 -0.0533781
0.459656 0.923411 -0.0538084
0.479792 0.923406 -0.0536565
0.439508 0.91346 -0.0530048
0.459668 0.913435 -0.0531497
0.4798 0.91343 -0.0529976
0.489849 0.918419 -0.0533162
0.449605 0.908459 -0.0527625
[...]
POINT_DATA 20503
VECTORS alpha float
-3.27213e-07 1.97691e-05 -1.33429e-06
9.22181e-07 -7.78529e-09 3.73686e-08
-3.22347e-07 1.9788e-05 -1.32883e-06
9.03351e-07 -7.54796e-09 3.63781e-08
-2.97925e-07 1.98063e-05 -1.30629e-06
8.8665e-07 -7.29375e-09 3.76318e-08
-3.81925e-07 1.87822e-05 -1.22766e-06
-3.5532e-07 1.88002e-05 -1.19263e-06
-2.91571e-07 1.98253e-05 -1.26502e-06
8.65524e-07 -7.0464e-09 3.64292e-08
-2.71018e-07 1.9842e-05 -1.24274e-06
-3.3421e-07 1.88177e-05 -1.15898e-06
8.73128e-07 -7.24608e-09 -1.47541e-08
8.49357e-07 -6.84477e-09 3.58853e-08
9.53058e-07 -7.72218e-09 5.15584e-08
9.34147e-07 -7.48596e-09 5.03536e-08
9.16059e-07 -7.22599e-09 4.92736e-08
8.9492e-07 -6.97052e-09 4.83327e-08
9.77638e-07 -7.50538e-09 5.16313e-08
-2.3816e-07 1.95727e-05 -1.29906e-06
-1.7357e-07 1.83925e-05 -1.2163e-06
9.94816e-07 -7.01064e-09 3.96804e-08
9.58061e-07 -7.26589e-09 5.16123e-08
9.75911e-07 -6.77588e-09 4.02915e-08
-1.22194e-07 1.66322e-05 -1.13e-06
9.40128e-07 -6.99403e-09 5.2421e-08
-2.31392e-07 1.9591e-05 -1.30364e-06
-1.73737e-07 1.84104e-05 -1.22245e-06
-1.21047e-07 1.66493e-05 -1.1207e-06
-2.24583e-07 1.96096e-05 -1.28797e-06
-1.64341e-07 1.84282e-05 -1.21803e-06
9.57409e-07 -6.55489e-09 4.00457e-08
9.18371e-07 -6.75538e-09 5.15116e-08
9.361e-07 -6.34484e-09 3.9607e-08
-1.19427e-07 1.66657e-05 -1.10869e-06
-2.20053e-07 1.96279e-05 -1.26532e-06
9.01739e-07 -6.54052e-09 5.09791e-08
-1.64873e-07 1.8446e-05 -1.21276e-06
-1.17598e-07 1.66819e-05 -1.11121e-06
-2.16815e-07 1.96452e-05 -1.24784e-06
-1.66023e-07 1.84631e-05 -1.22187e-06
8.78243e-07 -6.77126e-09 4.71372e-08
9.18856e-07 -6.17188e-09 3.832e-08
8.79262e-07 -6.30335e-09 5.09189e-08
-1.22783e-07 1.66971e-05 -1.10706e-06
-3.21748e-07 1.97497e-05 -1.32454e-06
-3.82467e-07 1.87632e-05 -1.2245e-06
9.44179e-07 -8.05273e-09 3.91028e-08
8.94981e-07 -7.50737e-09 -1.49229e-08
-3.16529e-07 1.97297e-05 -1.30844e-06
-3.72427e-07 1.87438e-05 -1.18004e-06
9.70275e-07 -8.37892e-09 3.95543e-08
9.21242e-07 -7.83098e-09 -1.46568e-08
-2.92325e-07 1.9708e-05 -1.30242e-06
-3.4429e-07 1.87228e-05 -1.14518e-06
9.89258e-07 -8.64881e-09 3.90253e-08
9.39503e-07 -8.09074e-09 -1.53476e-08
-2.96052e-07 1.96877e-05 -1.30563e-06
-3.5568e-07 1.87036e-05 -1.13879e-06
1.01326e-06 -8.96274e-09 3.84852e-08
9.62957e-07 -8.34448e-09 -1.67054e-08
-3.11876e-07 1.96671e-05 -1.30787e-06
-3.56755e-07 1.86833e-05 -1.1469e-06
1.03738e-06 -9.27207e-09 3.84388e-08
9.85207e-07 -8.60139e-09 -1.87693e-08
-3.1802e-07 1.96456e-05 -1.31391e-06
-3.52764e-07 1.86615e-05 -1.17738e-06
1.06222e-06 -9.60747e-09 3.79282e-08
1.00886e-06 -8.89572e-09 -2.0895e-08
-3.39946e-07 1.68003e-05 -1.01228e-06
-3.20211e-07 1.68204e-05 -9.70994e-07
-3.25112e-07 1.68414e-05 -9.90928e-07
-3.13012e-07 1.68594e-05 -9.85133e-07
-2.36386e-07 1.95539e-05 -1.29987e-06
-1.78957e-07 1.8375e-05 -1.20794e-06
-1.24664e-07 1.66158e-05 -1.13652e-06
9.74821e-07 -7.98394e-09 5.33759e-08
1.00166e-06 -8.30747e-09 5.5968e-08
1.02227e-06 -8.56358e-09 5.77047e-08
1.04722e-06 -8.88677e-09 5.86672e-08
1.07225e-06 -9.19362e-09 6.01072e-08
1.09776e-06 -9.5432e-09 6.1165e-08
9.99888e-07 -7.7655e-09 5.20453e-08
1.01717e-06 -7.2319e-09 3.99762e-08
-2.33334e-07 1.95341e-05 -1.31199e-06
-1.72709e-07 1.83561e-05 -1.22002e-06
-1.23271e-07 1.6598e-05 -1.13647e-06
1.02667e-06 -8.0791e-09 5.32233e-08
1.04371e-06 -7.5199e-09 4.07488e-08
-2.2292e-07 1.95138e-05 -1.30197e-06
-1.69735e-07 1.83368e-05 -1.21384e-06
-1.19308e-07 1.65804e-05 -1.13399e-06
1.04772e-06 -8.31386e-09 5.42625e-08
1.06498e-06 -7.73999e-09 4.11938e-08
-2.27449e-07 1.94937e-05 -1.30196e-06
-1.77863e-07 1.83174e-05 -1.22269e-06
-1.26537e-07 1.65624e-05 -1.12511e-06
1.0727e-06 -8.61557e-09 5.47444e-08
1.09022e-06 -8.02169e-09 4.09201e-08
-2.33968e-07 1.94733e-05 -1.30028e-06
-2.36505e-07 1.94517e-05 -1.30113e-06
-2.35033e-07 1.94301e-05 -1.29865e-06
-1.81334e-07 1.82983e-05 -1.22996e-06
-1.31812e-07 1.6544e-05 -1.12684e-06
1.09788e-06 -8.89142e-09 5.62145e-08
1.11572e-06 -8.30025e-09 4.10792e-08
-1.82016e-07 1.82776e-05 -1.22588e-06
-1.36979e-07 1.65252e-05 -1.11839e-06
1.12453e-06 -9.2035e-09 5.80327e-08
1.14235e-06 -8.64279e-09 4.06833e-08
-1.8073e-07 1.82571e-05 -1.2236e-06
-1.39831e-07 1.65066e-05 -1.106e-06
1.01633e-06 -6.4389e-09 3.21984e-08
9.97307e-07 -6.25796e-09 3.17074e-08
9.79719e-07 -6.04831e-09 3.15706e-08
9.58401e-07 -5.88208e-09 3.05157e-08
1.05638e-06 -4.86766e-09 2.27941e-08
1.07573e-06 -4.30014e-09 2.06114e-08
-4.11759e-08 1.28195e-05 -8.95838e-07
-3.03552e-08 1.1164e-05 -7.85183e-07
1.03706e-06 -5.63095e-09 2.55341e-08
-2.88739e-08 1.1176e-05 -7.8518e-07
-7.37622e-08 1.46839e-05 -1.00013e-06
1.01706e-06 -5.46034e-09 2.48272e-08
1.03609e-06 -4.75409e-09 2.19186e-08
1.05525e-06 -4.22898e-09 1.92022e-08
1.01726e-06 -4.59435e-09 2.15132e-08
1.03601e-06 -4.10971e-09 1.85086e-08
-7.21094e-08 1.4699e-05 -9.96328e-07
-4.16293e-08 1.28328e-05 -8.86667e-07
-3.86945e-08 1.28463e-05 -8.78405e-07
-3.06014e-08 1.11878e-05 -7.81769e-07
9.97719e-07 -5.28031e-09 2.46504e-08
-3.06368e-08 1.11989e-05 -7.77884e-07
9.75786e-07 -5.13468e-09 2.40643e-08
9.95214e-07 -4.48393e-09 2.08871e-08
1.01404e-06 -4.02084e-09 1.76204e-08
-7.31888e-08 1.47138e-05 -9.89565e-07
9.77129e-07 -4.35316e-09 2.05838e-08
9.95487e-07 -3.91035e-09 1.68167e-08
-7.84324e-08 1.47283e-05 -9.86005e-07
-4.48396e-08 1.2859e-05 -8.7611e-07
9.41966e-07 -5.6938e-09 2.97719e-08
-4.752e-08 1.28717e-05 -8.72131e-07
-3.41136e-08 1.12108e-05 -7.695e-07
9.5764e-07 -5.00142e-09 2.37835e-08
9.34912e-07 -4.84926e-09 2.33694e-08
9.54305e-07 -4.23547e-09 2.04608e-08
9.72782e-07 -3.81729e-09 1.6257e-08
-8.17967e-08 1.47427e-05 -9.81413e-07
1.11133e-06 -2.93555e-09 2.09412e-08
1.12587e-06 -2.42136e-09 1.93293e-08
-1.33913e-08 8.48806e-06 -6.01844e-07
-1.38351e-08 7.35584e-06 -5.21501e-07
1.09603e-06 -3.63598e-09 2.04233e-08
-1.27702e-08 7.36398e-06 -5.21802e-07
1.07522e-06 -3.52277e-09 1.97683e-08
1.09008e-06 -2.86949e-09 2.02616e-08
1.10445e-06 -2.37255e-09 1.86735e-08
-1.65425e-08 9.73609e-06 -6.91663e-07
1.06978e-06 -2.7572e-09 2.02242e-08
1.08356e-06 -2.27974e-09 1.82896e-08
-1.60797e-08 9.74672e-06 -6.92351e-07
-1.39462e-08 8.49729e-06 -6.02788e-07
-1.42676e-08 8.50639e-06 -5.99818e-07
-1.36678e-08 7.37192e-06 -5.20216e-07
1.05503e-06 -3.41254e-09 1.94925e-08
-1.40056e-08 7.37943e-06 -5.20563e-07
1.03229e-06 -3.28604e-09 1.91246e-08
1.04689e-06 -2.68233e-09 1.97205e-08
1.06058e-06 -2.22685e-09 1.76092e-08
-1.79379e-08 9.75695e-06 -6.86879e-07
1.02693e-06 -2.58329e-09 1.93819e-08
1.0402e-06 -2.15211e-09 1.6996e-08
-1.85141e-08 9.76669e-06 -6.85002e-07
-1.59299e-08 8.51497e-06 -5.98201e-07
-1.55434e-08 7.38735e-06 -5.18422e-07
-1.70923e-08 8.52431e-06 -5.93779e-07
1.0126e-06 -3.18976e-09 1.89091e-08
-1.68973e-08 7.39526e-06 -5.18012e-07
9.89303e-07 -3.06582e-09 1.88228e-08
1.00355e-06 -2.51461e-09 1.90924e-08
1.01678e-06 -2.10379e-09 1.65257e-08
-2.21455e-08 9.77723e-06 -6.79293e-07
9.8423e-07 -2.41201e-09 1.90354e-08
9.97228e-07 -2.01946e-09 1.62388e-08
-2.33677e-08 9.78724e-06 -6.78809e-07
-1.94305e-08 8.5331e-06 -5.93154e-07
1.03871e-06 -6.62372e-09 3.26109e-08
1.06514e-06 -6.87947e-09 3.35049e-08
1.08658e-06 -7.06843e-09 3.42618e-08
1.11183e-06 -7.29546e-09 3.44098e-08
1.13751e-06 -7.52795e-09 3.46609e-08
1.16409e-06 -7.80067e-09 3.49045e-08
-2.84027e-08 1.1152e-05 -7.82973e-07
-7.54223e-08 1.46685e-05 -1.00158e-06
-4.24111e-08 1.28058e-05 -8.9452e-07
1.06059e-06 -5.77829e-09 2.58022e-08
1.07973e-06 -5.01155e-09 2.30984e-08
1.09957e-06 -4.42524e-09 2.10212e-08
-2.73937e-08 1.11391e-05 -7.85721e-07
-4.00879e-08 1.27913e-05 -8.93939e-07
-7.34423e-08 1.46524e-05 -9.99281e-07
1.10671e-06 -5.17024e-09 2.3183e-08
1.12677e-06 -4.55556e-09 2.13656e-08
1.08723e-06 -5.99583e-09 2.55666e-08
-7.01267e-08 1.46364e-05 -1.00381e-06
-2.52547e-08 1.11262e-05 -7.77772e-07
-3.83764e-08 1.27766e-05 -8.90428e-07
1.10987e-06 -6.14726e-09 2.53551e-08
1.12901e-06 -5.29783e-09 2.32674e-08
1.14965e-06 -4.68218e-09 2.17256e-08
-7.42989e-08 1.46201e-05 -9.99149e-07
-3.87667e-08 1.2762e-05 -8.83656e-07
-2.75236e-08 1.11133e-05 -7.7827e-07
1.15555e-06 -5.40168e-09 2.32439e-08
1.17648e-06 -4.7867e-09 2.19564e-08
1.13576e-06 -6.33894e-09 2.52099e-08
-7.58877e-08 1.46033e-05 -9.97656e-07
-2.62074e-08 1.10998e-05 -7.72299e-07
-3.87479e-08 1.27467e-05 -8.79036e-07
-7.80835e-08 1.45863e-05 -9.9604e-07
-7.69625e-08 1.45688e-05 -9.90773e-07
1.16253e-06 -6.5709e-09 2.46568e-08
1.18193e-06 -5.58078e-09 2.2872e-08
1.2035e-06 -4.9601e-09 2.1998e-08
-3.70162e-08 1.27315e-05 -8.74581e-07
-2.62227e-08 1.10866e-05 -7.70093e-07
1.2097e-06 -5.72275e-09 2.28978e-08
1.23144e-06 -5.09897e-09 2.19051e-08
1.18961e-06 -6.82439e-09 2.41269e-08
-2.46768e-08 1.10729e-05 -7.68389e-07
-3.72208e-08 1.27156e-05 -8.68489e-07
-1.54859e-08 9.72533e-06 -6.91571e-07
-1.36076e-08 8.47861e-06 -6.00623e-07
-1.42053e-08 7.3475e-06 -5.20386e-07
1.12098e-06 -3.74561e-09 2.05917e-08
1.13615e-06 -3.04548e-09 2.09519e-08
1.15123e-06 -2.52137e-09 1.96123e-08
-1.15659e-08 8.46841e-06 -6.02246e-07
-1.2388e-08 7.33867e-06 -5.20435e-07
-1.47428e-08 9.7136e-06 -6.96233e-07
1.17984e-06 -2.61854e-09 1.97361e-08
1.14869e-06 -3.94618e-09 2.00322e-08
1.16409e-06 -3.19066e-09 2.05928e-08
-1.37817e-08 9.70199e-06 -6.91364e-07
-1.10415e-08 8.45826e-06 -5.99301e-07
-1.17821e-08 7.32983e-06 -5.17221e-07
1.17284e-06 -4.05881e-09 2.00466e-08
1.18844e-06 -3.26704e-09 2.05516e-08
1.20458e-06 -2.72722e-09 1.9995e-08
-1.60606e-08 9.69035e-06 -6.88397e-07
-1.16534e-08 8.44796e-06 -6.00001e-07
-1.22508e-08 7.32086e-06 -5.16577e-07
1.23253e-06 -2.79721e-09 2.01101e-08
1.19992e-06 -4.22071e-09 1.98421e-08
1.21571e-06 -3.38825e-09 2.04652e-08
-1.66185e-08 9.67822e-06 -6.85712e-07
-1.28387e-08 8.43707e-06 -6.00383e-07
-1.32968e-08 7.31129e-06 -5.17477e-07
1.22822e-06 -4.35314e-09 2.00014e-08
1.24421e-06 -3.48605e-09 2.06091e-08
1.26099e-06 -2.91872e-09 2.01069e-08
-1.89951e-08 9.66612e-06 -6.86635e-07
-2.13626e-08 9.65358e-06 -6.9026e-07
-1.26213e-08 8.42667e-06 -6.00135e-07
-1.32925e-08 7.30215e-06 -5.16551e-07
1.28995e-06 -2.98976e-09 2.04817e-08
1.25641e-06 -4.48105e-09 2.05444e-08
1.27258e-06 -3.60706e-09 2.07326e-08
-1.40187e-08 8.41542e-06 -6.01846e-07
-1.46887e-08 7.29226e-06 -5.17493e-07
1.13699e-06 -1.78376e-09 1.14617e-08
1.14702e-06 -1.40432e-09 1.09066e-08
1.1569e-06 -1.24081e-09 9.46705e-09
1.12561e-06 -1.3724e-09 1.07867e-08
-6.98908e-09 6.28435e-06 -4.52836e-07
1.62578e-09 5.23687e-06 -3.74945e-07
-2.65975e-09 4.19258e-06 -3.01066e-07
-6.54433e-09 6.29166e-06 -4.51403e-07
1.90628e-09 5.24293e-06 -3.73898e-07
-2.43373e-09 4.19745e-06 -3.00191e-07
1.11522e-06 -1.73237e-09 1.15522e-08
1.13482e-06 -1.2126e-09 9.35283e-09
1.09409e-06 -1.65679e-09 1.21354e-08
1.10368e-06 -1.32224e-09 1.12531e-08
1.11305e-06 -1.19074e-09 9.33022e-09
1.08042e-06 -1.28016e-09 1.1228e-08
1.08969e-06 -1.15771e-09 9.24907e-09
-7.12249e-09 6.29855e-06 -4.48477e-07
1.20223e-09 5.24867e-06 -3.71405e-07
-2.75586e-09 4.20206e-06 -2.99207e-07
-6.35287e-09 6.3051e-06 -4.46908e-07
9.29288e-10 5.25403e-06 -3.71856e-07
-2.74689e-09 4.20639e-06 -2.99013e-07
1.07052e-06 -1.59726e-09 1.24363e-08
1.04992e-06 -1.55167e-09 1.25508e-08
1.05927e-06 -1.24005e-09 1.14169e-08
1.06836e-06 -1.13245e-09 9.28398e-09
-7.2153e-09 6.31198e-06 -4.44173e-07
1.03534e-06 -1.19865e-09 1.14633e-08
1.04431e-06 -1.09778e-09 9.29925e-09
-5.55966e-11 5.25973e-06 -3.71471e-07
-3.22809e-09 4.21095e-06 -2.9854e-07
-7.5165e-09 6.31883e-06 -4.4345e-07
-3.54427e-09 4.21546e-06 -2.98345e-07
-9.78101e-10 5.2654e-06 -3.71876e-07
1.02567e-06 -1.50221e-09 1.28469e-08
1.00596e-06 -1.45129e-09 1.30962e-08
1.01515e-06 -1.15873e-09 1.17247e-08
1.02394e-06 -1.06778e-09 9.30599e-09
1.16299e-06 -5.7925e-10 1.01669e-08
1.16728e-06 -2.5815e-10 8.72809e-09
1.1685e-06 -1.4591e-10 -2.0556e-09
1.1412e-06 -5.50197e-10 1.01384e-08
-2.18575e-09 3.14605e-06 -2.27572e-07
-1.21414e-09 2.09766e-06 -1.5092e-07
-4.8785e-10 1.04868e-06 -7.54563e-08
-1.94632e-09 3.14972e-06 -2.26925e-07
-1.10119e-09 2.10011e-06 -1.5034e-07
-4.04254e-10 1.0499e-06 -7.52011e-08
1.14502e-06 -2.58935e-10 8.54588e-09
1.14624e-06 -1.64228e-10 -2.01276e-09
1.11883e-06 -5.31587e-10 1.01082e-08
1.12288e-06 -2.40636e-10 8.49213e-09
1.12403e-06 -1.61608e-10 -2.08585e-09
1.09542e-06 -5.01697e-10 9.93584e-09
-2.01059e-09 3.15321e-06 -2.26442e-07
-1.19158e-09 2.10243e-06 -1.50161e-07
-3.79391e-10 1.05107e-06 -7.5104e-08
-1.74064e-09 3.1565e-06 -2.26246e-07
-1.07821e-09 2.10463e-06 -1.50043e-07
-2.67562e-10 1.05217e-06 -7.50166e-08
1.09919e-06 -2.38683e-10 8.28505e-09
1.10038e-06 -1.75807e-10 -2.15484e-09
1.07396e-06 -4.78444e-10 9.85985e-09
1.07793e-06 -2.22506e-10 8.11789e-09
1.07909e-06 -1.75378e-10 -2.27785e-09
-1.87185e-09 3.15995e-06 -2.25734e-07
1.04987e-06 -4.65517e-10 9.74841e-09
1.0538e-06 -2.22046e-10 7.94364e-09
-1.21765e-09 2.10694e-06 -1.49703e-07
-2.71707e-10 1.05333e-06 -7.48389e-08
-1.76515e-09 3.16337e-06 -2.25401e-07
-1.31726e-09 2.1092e-06 -1.49692e-07
-2.33586e-10 1.05446e-06 -7.48393e-08
1.05472e-06 -1.9561e-10 -2.28457e-09
1.02943e-06 -4.47088e-10 9.72039e-09
1.03334e-06 -2.20179e-10 7.79825e-09
1.03454e-06 -1.99974e-10 -2.42162e-09
-6.39901e-09 6.27746e-06 -4.49919e-07
3.00806e-09 5.23093e-06 -3.73944e-07
-1.94063e-09 4.18776e-06 -3.00374e-07
1.17353e-06 -1.46259e-09 1.08218e-08
1.16266e-06 -1.86033e-09 1.12731e-08
1.18309e-06 -1.28157e-09 9.47135e-09
-5.98541e-09 6.26981e-06 -4.49367e-07
3.31656e-09 5.22469e-06 -3.74044e-07
-1.91275e-09 4.18274e-06 -3.00472e-07
1.19207e-06 -1.9668e-09 1.05458e-08
1.20272e-06 -1.55027e-09 1.04651e-08
1.21303e-06 -1.32567e-09 9.49114e-09
-5.79465e-09 6.26212e-06 -4.47316e-07
4.11206e-09 5.21829e-06 -3.72917e-07
-1.37606e-09 4.1776e-06 -2.99682e-07
1.21691e-06 -2.03423e-09 1.05184e-08
1.22779e-06 -1.59202e-09 1.05261e-08
1.23837e-06 -1.3558e-09 9.70031e-09
-6.66258e-09 6.25438e-06 -4.4562e-07
3.83121e-09 5.21178e-06 -3.72454e-07
-1.55512e-09 4.17235e-06 -2.99223e-07
1.24548e-06 -2.12163e-09 1.06852e-08
1.25639e-06 -1.63219e-09 1.05927e-08
1.26715e-06 -1.37799e-09 9.87097e-09
-7.67554e-09 6.24613e-06 -4.4505e-07
4.079e-09 5.20491e-06 -3.72905e-07
-1.497e-09 4.16684e-06 -2.99471e-07
1.27447e-06 -2.20768e-09 1.0797e-08
1.28559e-06 -1.68748e-09 1.07208e-08
1.2967e-06 -1.41936e-09 1.00881e-08
-8.3983e-09 6.23826e-06 -4.43195e-07
-1.00886e-08 6.22973e-06 -4.44692e-07
4.09181e-09 5.19829e-06 -3.7133e-07
-1.61393e-09 4.16145e-06 -2.98912e-07
-1.74354e-09 4.15582e-06 -2.98702e-07
1.30429e-06 -2.31406e-09 1.13225e-08
1.31544e-06 -1.7453e-09 1.09056e-08
1.32673e-06 -1.46506e-09 1.01848e-08
4.01688e-09 5.19122e-06 -3.7177e-07
-1.69329e-09 3.14241e-06 -2.27182e-07
-1.09562e-09 2.09523e-06 -1.50332e-07
-5.50291e-10 1.04746e-06 -7.51716e-08
1.18985e-06 -5.79369e-10 1.04532e-08
1.19378e-06 -2.6504e-10 8.82605e-09
1.19506e-06 -1.45614e-10 -2.06335e-09
-1.74382e-09 3.13862e-06 -2.27134e-07
-1.07615e-09 2.09269e-06 -1.50499e-07
-5.90698e-10 1.04619e-06 -7.52404e-08
1.21954e-06 -6.1438e-10 1.07394e-08
1.22406e-06 -2.8048e-10 9.03238e-09
1.22537e-06 -1.46207e-10 -1.92827e-09
-1.56525e-09 3.13475e-06 -2.26223e-07
-9.9544e-10 2.09009e-06 -1.50128e-07
-6.30776e-10 1.04489e-06 -7.50378e-08
1.2451e-06 -6.43343e-10 1.08181e-08
1.24975e-06 -2.97585e-10 9.22361e-09
1.25111e-06 -1.50044e-10 -1.86795e-09
-1.75997e-09 3.13079e-06 -2.259e-07
-1.10902e-09 2.08743e-06 -1.50114e-07
-7.40756e-10 1.04355e-06 -7.50132e-08
1.27404e-06 -6.5122e-10 1.10879e-08
1.27876e-06 -2.97835e-10 9.54799e-09
1.28012e-06 -1.33955e-10 -1.71575e-09
-1.86465e-09 3.12664e-06 -2.26058e-07
-1.09962e-09 2.08465e-06 -1.50087e-07
-8.25391e-10 1.04215e-06 -7.50479e-08
1.30386e-06 -6.84729e-10 1.13359e-08
1.30872e-06 -3.1814e-10 9.81535e-09
1.31014e-06 -1.39428e-10 -1.63449e-09
-2.11048e-09 3.12258e-06 -2.25784e-07
-1.25768e-09 2.08191e-06 -1.49985e-07
-9.38926e-10 1.04079e-06 -7.49142e-08
-2.6374e-09 3.11829e-06 -2.26053e-07
-1.30596e-09 2.07904e-06 -1.5032e-07
1.33402e-06 -6.86061e-10 1.17104e-08
1.33896e-06 -3.12052e-10 1.01307e-08
1.34037e-06 -1.21384e-10 -1.6617e-09
-1.09147e-09 1.03934e-06 -7.51444e-08
-3.64284e-16 -2.03825e-12 1.48017e-13
-1.73797e-09 -2.11147e-06 1.50446e-07
-4.99618e-09 -4.21995e-06 3.00103e-07
-1.42528e-09 -2.10701e-06 1.49759e-07
-1.13932e-09 -2.09764e-06 1.50982e-07
1.16847e-06 1.25885e-10 1.98674e-09
1.16728e-06 2.44154e-10 -9.02879e-09
1.16298e-06 5.61756e-10 -1.03692e-08
1.14541e-06 2.27428e-10 -8.91452e-09
1.14119e-06 5.3428e-10 -1.025e-08
-9.65144e-16 -2.71788e-12 1.95993e-13
-5.00312e-10 -1.04867e-06 7.55836e-08
-2.10884e-09 -3.14601e-06 2.28238e-07
-6.91304e-16 -2.70424e-12 1.94256e-13
-4.256e-10 -1.04991e-06 7.53949e-08
-1.17226e-09 -2.10011e-06 1.50823e-07
-1.98535e-09 -3.14972e-06 2.2757e-07
1.1462e-06 1.35363e-10 1.84916e-09
-1.03347e-09 -2.10244e-06 1.50635e-07
1.124e-06 1.43351e-10 1.98652e-09
1.12289e-06 2.2578e-10 -8.81633e-09
1.1188e-06 5.15279e-10 -1.02348e-08
1.09945e-06 2.13043e-10 -8.56503e-09
1.09541e-06 4.86375e-10 -1.0035e-08
-4.42273e-16 -2.68759e-12 1.92528e-13
-3.93102e-10 -1.05107e-06 7.53001e-08
-2.06356e-09 -3.15321e-06 2.26985e-07
-1.89571e-18 -2.66313e-12 1.90118e-13
-2.73262e-10 -1.05217e-06 7.51372e-08
-1.1009e-09 -2.10461e-06 1.50387e-07
-1.70776e-09 -3.15647e-06 2.26603e-07
1.10036e-06 1.58115e-10 2.07548e-09
1.07906e-06 1.5881e-10 2.15647e-09
1.07794e-06 2.08271e-10 -8.44088e-09
1.07394e-06 4.65827e-10 -9.96936e-09
1.05383e-06 2.07043e-10 -8.23814e-09
1.04989e-06 4.51948e-10 -9.86865e-09
1.72575e-16 -2.64161e-12 1.87698e-13
-2.67159e-10 -1.05332e-06 7.48769e-08
-1.74683e-09 -3.15991e-06 2.25879e-07
4.91161e-16 -2.62782e-12 1.87188e-13
-2.3367e-10 -1.05445e-06 7.51161e-08
-1.33683e-09 -2.10918e-06 1.50292e-07
-1.74373e-09 -3.16333e-06 2.26315e-07
1.05473e-06 1.78456e-10 2.17654e-09
1.03452e-06 1.80993e-10 2.22905e-09
1.03336e-06 2.05339e-10 -8.1358e-09
1.02943e-06 4.36808e-10 -9.84713e-09
1.15696e-06 1.22731e-09 -9.94833e-09
1.14704e-06 1.38545e-09 -1.1027e-08
1.137e-06 1.76934e-09 -1.15513e-08
1.1353e-06 1.19967e-09 -9.59335e-09
1.12562e-06 1.3531e-09 -1.09098e-08
-2.63236e-09 -4.19253e-06 3.0219e-07
1.60004e-09 -5.23686e-06 3.75169e-07
-6.99143e-09 -6.28433e-06 4.52978e-07
-2.55726e-09 -4.19744e-06 3.01291e-07
1.87206e-09 -5.24292e-06 3.74082e-07
-6.55986e-09 -6.29164e-06 4.51538e-07
1.11523e-06 1.71791e-09 -1.16422e-08
1.11308e-06 1.17865e-09 -9.63261e-09
1.1037e-06 1.30422e-09 -1.13619e-08
1.0941e-06 1.6431e-09 -1.22198e-08
1.08973e-06 1.14595e-09 -9.51496e-09
1.08044e-06 1.26276e-09 -1.13409e-08
-2.83792e-09 -4.20206e-06 3.00062e-07
1.1575e-09 -5.24865e-06 3.7169e-07
-7.15327e-09 -6.29852e-06 4.48729e-07
-2.7029e-09 -4.20636e-06 2.99544e-07
8.99963e-10 -5.25403e-06 3.71988e-07
-6.35855e-09 -6.30509e-06 4.46956e-07
1.07053e-06 1.58409e-09 -1.25253e-08
1.06839e-06 1.12279e-09 -9.5515e-09
1.05928e-06 1.22216e-09 -1.14864e-08
1.04992e-06 1.53781e-09 -1.25973e-08
1.04439e-06 1.08642e-09 -9.57187e-09
1.03536e-06 1.18125e-09 -1.15371e-08
-3.04951e-09 -4.21089e-06 2.98716e-07
-6.37625e-11 -5.25972e-06 3.71414e-07
-7.18916e-09 -6.31196e-06 4.43983e-07
-3.53654e-09 -4.2154e-06 2.99582e-07
-9.65759e-10 -5.26539e-06 3.7183e-07
-7.47925e-09 -6.31881e-06 4.43299e-07
1.02568e-06 1.48873e-09 -1.28988e-08
1.02399e-06 1.06197e-09 -9.5371e-09
1.01517e-06 1.14682e-09 -1.17858e-08
1.00597e-06 1.44216e-09 -1.31437e-08
-1.09776e-15 -2.24242e-12 1.62225e-13
-1.52628e-15 -2.41461e-12 1.74609e-13
-1.443e-15 -2.71157e-12 1.9523e-13
-5.74806e-10 -1.04746e-06 7.53636e-08
-1.189e-09 -2.09522e-06 1.50728e-07
-1.67021e-09 -3.14237e-06 2.27999e-07
1.19425e-06 2.31791e-10 -9.29476e-09
1.18985e-06 5.64008e-10 -1.05806e-08
1.19502e-06 1.1484e-10 1.91264e-09
-1.7147e-15 -2.69564e-12 1.9486e-13
-6.36453e-10 -1.04618e-06 7.55517e-08
-1.21726e-09 -2.09268e-06 1.51064e-07
-1.82092e-09 -3.1386e-06 2.28386e-07
1.22532e-06 1.05471e-10 1.72624e-09
1.22408e-06 2.57228e-10 -9.53556e-09
1.21954e-06 6.00528e-10 -1.07958e-08
-1.94485e-15 -2.65053e-12 1.91555e-13
-6.64934e-10 -1.04487e-06 7.54869e-08
-1.13098e-09 -2.09007e-06 1.51024e-07
-1.68291e-09 -3.13471e-06 2.27695e-07
1.24566e-06 6.17592e-10 -1.09665e-08
1.25104e-06 1.11304e-10 1.67008e-09