# vtk DataFile Version 3.0
vtk output
ASCII
DATASET POLYDATA
POINTS 17675 float
0.16285 0.889819 -0.0504054
0.162979 0.879828 -0.0499075
0.163099 0.86984 -0.0493677
0.152372 0.884922 -0.0494806
0.15253 0.874933 -0.0489185
0.141776 0.890012 -0.0487477
0.16323 0.859856 -0.0487986
0.163333 0.849869 -0.0482613
0.152683 0.864949 -0.0483757
0.141938 0.880022 -0.0482703
0.1528 0.854958 -0.0478542
0.142104 0.870029 -0.0477304
0.16349 0.839882 -0.0476099
0.152947 0.844967 -0.0473124
0.131447 0.885112 -0.0472788
0.163637 0.829893 -0.0470063
0.142288 0.860046 -0.047148
0.153082 0.834985 -0.0467983
0.142426 0.850058 -0.0466866
0.131636 0.875123 -0.0467799
0.174064 0.834794 -0.0475827
0.195157 0.834618 -0.0478211
0.184652 0.829706 -0.0475983
0.21617 0.834471 -0.0474305
0.195272 0.824636 -0.0472278
0.205746 0.829555 -0.0473585
0.17423 0.824805 -0.0469576
0.195397 0.814649 -0.0465876
0.184819 0.819724 -0.046942
0.205849 0.819569 -0.0467212
0.216262 0.82449 -0.0468033
0.226619 0.829407 -0.0469668
0.236909 0.834334 -0.0471836
0.257454 0.8342 -0.0472216
0.277899 0.834086 -0.0471827
0.257516 0.824215 -0.0466157
0.277946 0.824102 -0.0465788
0.247224 0.829279 -0.0469176
0.267719 0.829151 -0.0468594
0.184454 0.83969 -0.0482965
0.205634 0.839535 -0.0480014
0.173452 0.884729 -0.0506969
0.173578 0.874741 -0.0500988
0.173688 0.864757 -0.0494864
0.173794 0.854769 -0.0488823
0.173922 0.844779 -0.0482406
0.195038 0.844602 -0.0484884
0.216072 0.844454 -0.0480906
0.184258 0.849682 -0.0490129
0.205508 0.849512 -0.048657
0.19488 0.854583 -0.0491499
0.215967 0.854434 -0.0487327
0.184065 0.859662 -0.0496944
0.194731 0.864574 -0.0498283
0.205401 0.859497 -0.0492646
0.215875 0.864421 -0.0493615
0.183932 0.869648 -0.0504066
0.205272 0.869476 -0.0499237
0.183709 0.889631 -0.0517073
0.183824 0.879639 -0.0510592
0.194371 0.884538 -0.0511698
0.205026 0.889447 -0.0512212
0.215665 0.88438 -0.0506644
0.19454 0.874555 -0.050513
0.205166 0.879466 -0.0505539
0.215772 0.8744 -0.050005
0.226531 0.839392 -0.0475866
0.247155 0.839253 -0.0475542
0.26767 0.839125 -0.0474932
0.226452 0.84937 -0.0482123
0.226291 0.869334 -0.0494821
0.226122 0.889303 -0.0507896
0.226213 0.879323 -0.0501157
0.226376 0.859356 -0.0488306
0.236817 0.844308 -0.0478735
0.257394 0.844175 -0.0478615
0.27785 0.84406 -0.0478181
0.247078 0.849239 -0.0481468
0.267605 0.84911 -0.0481114
0.236743 0.854291 -0.0485053
0.257327 0.854156 -0.0485126
0.277796 0.854041 -0.048454
0.236664 0.864274 -0.0491289
0.257273 0.864138 -0.0491256
0.277759 0.864024 -0.0490599
0.246954 0.86919 -0.0494577
0.246846 0.889159 -0.0507127
0.236525 0.884238 -0.0504303
0.257176 0.884101 -0.05036
0.277692 0.883986 -0.0502839
0.267428 0.889037 -0.0505789
0.246903 0.879178 -0.050071
0.267476 0.879051 -0.0499698
0.236586 0.874257 -0.0497837
0.257218 0.87412 -0.0497447
0.277719 0.874004 -0.0496815
0.267509 0.869067 -0.0493822
0.247026 0.859217 -0.0487757
0.267562 0.859088 -0.0487435
0.298162 0.834003 -0.0475027
0.318525 0.833927 -0.0475902
0.288046 0.82905 -0.0470625
0.308385 0.828982 -0.0471781
0.328677 0.828907 -0.0473124
0.32872 0.818926 -0.0466789
0.298255 0.824029 -0.046876
0.318586 0.823955 -0.0469528
0.379189 0.833722 -0.0479068
0.369077 0.828761 -0.047492
0.389284 0.82872 -0.0474563
0.338752 0.833851 -0.0476903
0.358974 0.833783 -0.0476648
0.338791 0.82387 -0.0470339
0.358999 0.823803 -0.0470475
0.379196 0.823749 -0.0472582
0.348895 0.82883 -0.0472555
0.379212 0.813769 -0.0466231
0.348929 0.818848 -0.0466365
0.369096 0.818787 -0.0468497
0.389283 0.818747 -0.0468117
0.328624 0.838875 -0.047984
0.287965 0.83902 -0.0476636
0.308322 0.838958 -0.047834
0.298092 0.843978 -0.0481371
0.318477 0.843902 -0.0482421
0.287848 0.848991 -0.0482921
0.308231 0.848932 -0.0485066
0.328574 0.848855 -0.0486315
0.297992 0.853947 -0.0488177
0.318414 0.853869 -0.0489147
0.308157 0.858903 -0.0491621
0.328527 0.858823 -0.0492844
0.287778 0.858969 -0.0489147
0.287745 0.868944 -0.0495465
0.287705 0.888913 -0.0507434
0.287723 0.878932 -0.0501335
0.318347 0.863841 -0.0495772
0.29792 0.863931 -0.049436
0.318242 0.883805 -0.0508567
0.30797 0.888844 -0.0510147
0.328397 0.888757 -0.0512085
0.297782 0.883882 -0.0506485
0.308021 0.878861 -0.0503927
0.328434 0.878776 -0.0505709
0.297839 0.873901 -0.0500428
0.318305 0.873827 -0.0502034
0.308097 0.868881 -0.0497976
0.328483 0.8688 -0.0499498
0.348856 0.838798 -0.0479285
0.369056 0.838737 -0.0481403
0.389273 0.838695 -0.0481099
0.338703 0.84382 -0.0483714
0.379173 0.843698 -0.0485547
0.358944 0.84376 -0.0483014
0.348822 0.848778 -0.0485524
0.369032 0.848717 -0.0487596
0.389261 0.848675 -0.0487443
0.338665 0.853797 -0.0490215
0.379165 0.853668 -0.0492323
0.358911 0.853729 -0.0489623
0.33862 0.86377 -0.0496964
0.338553 0.883725 -0.0509721
0.338593 0.873751 -0.0503208
0.369008 0.858687 -0.0494133
0.38926 0.858646 -0.0493991
0.348795 0.858755 -0.0491923
0.379148 0.863647 -0.0498765
0.358883 0.863708 -0.0496051
0.389253 0.888574 -0.0513372
0.379133 0.883603 -0.0511338
0.348703 0.888685 -0.0511869
0.368951 0.888623 -0.0512989
0.379143 0.873622 -0.0505037
0.348728 0.878703 -0.0505342
0.368971 0.878641 -0.0506749
0.389251 0.878598 -0.0506874
0.358843 0.883664 -0.0508516
0.368984 0.868658 -0.0500695
0.389257 0.868616 -0.0500726
0.358862 0.873683 -0.0502288
0.348755 0.868725 -0.0498891
0.419518 0.833657 -0.0479785
0.439646 0.833642 -0.0479091
0.409432 0.828687 -0.0475755
0.429589 0.828664 -0.0475964
0.399354 0.833695 -0.0478106
0.399377 0.823717 -0.0471877
0.41953 0.823685 -0.0473384
0.439638 0.82367 -0.0472672
0.419539 0.813706 -0.0467046
0.439638 0.81369 -0.046631
0.409452 0.818716 -0.0469376
0.429589 0.818691 -0.0469619
0.459758 0.833625 -0.0479632
0.499961 0.833629 -0.0478961
0.449694 0.82865 -0.0475484
0.469801 0.828639 -0.0475592
0.489893 0.82864 -0.0475259
0.479845 0.833632 -0.0478432
0.45974 0.823653 -0.0473273
0.479832 0.823652 -0.0472149
0.49991 0.823654 -0.0472664
0.459737 0.813673 -0.0467006
0.479821 0.813672 -0.0465875
0.49989 0.813674 -0.0466413
0.449685 0.818677 -0.0469155
0.469774 0.818666 -0.0469297
0.48985 0.818667 -0.0469
0.409419 0.838662 -0.048224
0.429584 0.838638 -0.0482474
0.399316 0.843663 -0.0484603
0.419508 0.843632 -0.0486259
0.439646 0.843617 -0.0485642
0.409402 0.848631 -0.0488672
0.429586 0.848607 -0.0488963
0.419501 0.853601 -0.04928
0.439658 0.853586 -0.0492208
0.399296 0.853639 -0.0491056
0.409393 0.858611 -0.0494849
0.429581 0.858587 -0.0495321
0.399258 0.863609 -0.0497609
0.419492 0.863579 -0.0499293
0.439657 0.863563 -0.0498779
0.419488 0.873551 -0.0505726
0.439667 0.873536 -0.0505303
0.399243 0.873589 -0.0503888
0.409376 0.86858 -0.0501572
0.42958 0.868555 -0.0502047
0.40937 0.878562 -0.0507749
0.429579 0.878537 -0.0508329
0.399215 0.883562 -0.05104
0.419482 0.883533 -0.0512133
0.439665 0.883517 -0.0511793
0.409356 0.888537 -0.0514173
0.429579 0.888512 -0.0514792
0.449693 0.838624 -0.048197
0.46981 0.838613 -0.0482055
0.489911 0.838615 -0.0481729
0.459762 0.8436 -0.0486077
0.47988 0.8436 -0.0484952
0.449703 0.848593 -0.0488567
0.469836 0.848583 -0.0488566
0.489954 0.848586 -0.0488224
0.45978 0.85357 -0.049258
0.47989 0.853577 -0.0491376
0.449701 0.858573 -0.0494905
0.469844 0.858564 -0.0494885
0.48997 0.858566 -0.0494535
0.459783 0.863548 -0.0499074
0.479924 0.863548 -0.0497969
0.459802 0.873521 -0.0505528
0.449711 0.868541 -0.0501651
0.469869 0.868532 -0.0501547
0.490011 0.868535 -0.0501202
0.479935 0.873529 -0.0504317
0.449714 0.878523 -0.050802
0.469877 0.878515 -0.0507829
0.490022 0.878518 -0.0507438
0.459806 0.883503 -0.0511915
0.479966 0.883503 -0.0510792
0.449726 0.888498 -0.0514558
0.469902 0.888491 -0.051424
0.490059 0.888494 -0.0513843
0.500012 0.873528 -0.0504792
0.540241 0.833625 -0.0479629
0.510107 0.82864 -0.0475262
0.530198 0.828639 -0.0475586
0.550305 0.82865 -0.0475464
0.520155 0.833632 -0.0478437
0.520168 0.823652 -0.047214
0.540259 0.823653 -0.0473256
0.520179 0.813672 -0.0465864
0.540262 0.813673 -0.046699
0.51015 0.818667 -0.0468992
0.530225 0.818666 -0.0469281
0.550315 0.818678 -0.0469121
0.560353 0.833642 -0.0479082
0.580482 0.833657 -0.0479765
0.57041 0.828664 -0.0475941
0.590567 0.828688 -0.0475711
0.600646 0.833695 -0.0478071
0.560362 0.82367 -0.0472647
0.58047 0.823685 -0.0473352
0.600622 0.823717 -0.0471844
0.560361 0.81369 -0.0466284
0.58046 0.813706 -0.0467017
0.57041 0.818692 -0.0469588
0.590547 0.818716 -0.0469334
0.49999 0.853575 -0.0491941
0.49999 0.88351 -0.0511147
0.499993 0.863554 -0.0498455
0.510089 0.838615 -0.0481733
0.53019 0.838613 -0.0482054
0.550306 0.838624 -0.0481962
0.500017 0.843604 -0.048543
0.52012 0.8436 -0.0484962
0.540238 0.8436 -0.048608
0.510045 0.848586 -0.0488253
0.530163 0.848584 -0.0488588
0.550297 0.848593 -0.0488579
0.54022 0.85357 -0.0492609
0.520109 0.853578 -0.0491411
0.51003 0.858567 -0.0494581
0.530156 0.858564 -0.0494923
0.550299 0.858573 -0.049493
0.520076 0.863549 -0.0497988
0.540217 0.863548 -0.0499086
0.540197 0.873521 -0.0505527
0.509989 0.868536 -0.0501231
0.530131 0.868533 -0.0501573
0.550289 0.868541 -0.0501659
0.520065 0.873529 -0.0504319
0.509978 0.878519 -0.0507405
0.530123 0.878515 -0.05078
0.550285 0.878523 -0.0507969
0.520032 0.883504 -0.0510681
0.540192 0.883504 -0.0511802
0.509939 0.888495 -0.0513722
0.530097 0.888492 -0.0514128
0.550272 0.888499 -0.0514416
0.570415 0.838638 -0.0482455
0.590581 0.838662 -0.0482206
0.560353 0.843617 -0.0485631
0.580492 0.843632 -0.0486237
0.600684 0.843663 -0.0484583
0.570413 0.848607 -0.0488959
0.590598 0.848631 -0.0488659
0.560342 0.853586 -0.0492221
0.580499 0.853601 -0.0492798
0.600704 0.853639 -0.0491047
0.570419 0.858587 -0.0495326
0.590606 0.858611 -0.0494839
0.560343 0.863564 -0.049877
0.580508 0.863579 -0.0499272
0.600742 0.863609 -0.04976
0.560333 0.873536 -0.0505281
0.580511 0.873552 -0.0505698
0.57042 0.868555 -0.0502041
0.590623 0.86858 -0.0501569
0.600756 0.873589 -0.0503875
0.57042 0.878538 -0.050828
0.590629 0.878562 -0.0507713
0.560336 0.883518 -0.0511679
0.58052 0.883534 -0.0512005
0.600786 0.883563 -0.0510261
0.570422 0.888513 -0.0514675
[...]
POINT_DATA 17675
VECTORS alpha float
1.38707e-06 -1.01562e-08 3.50647e-08
1.35248e-06 -9.78443e-09 3.87178e-08
1.32011e-06 -9.46842e-09 4.32138e-08
-2.95682e-07 1.83103e-05 -1.25095e-06
-2.86777e-07 1.83393e-05 -1.26065e-06
1.31787e-06 -9.52412e-09 -2.46293e-08
1.27723e-06 -9.08244e-09 4.5852e-08
1.25242e-06 -8.78314e-09 5.01093e-08
-2.76206e-07 1.83681e-05 -1.23205e-06
1.28557e-06 -9.14995e-09 -1.63048e-08
-2.77359e-07 1.83958e-05 -1.23838e-06
1.25529e-06 -8.80777e-09 -1.25706e-08
1.22345e-06 -8.52548e-09 5.12933e-08
-2.76468e-07 1.84242e-05 -1.22177e-06
-2.80222e-07 1.64694e-05 -1.07692e-06
1.19678e-06 -8.25945e-09 5.21536e-08
1.21487e-06 -8.42013e-09 -8.9855e-09
-2.76234e-07 1.84514e-05 -1.22824e-06
1.19245e-06 -8.16301e-09 -2.7639e-09
-2.72392e-07 1.64981e-05 -1.08961e-06
-2.16374e-07 1.94323e-05 -1.31582e-06
-1.88633e-07 1.92458e-05 -1.32014e-06
1.24449e-06 -8.50043e-09 7.88347e-08
-1.332e-07 1.80824e-05 -1.23567e-06
-1.90626e-07 1.92698e-05 -1.31282e-06
1.27934e-06 -8.17316e-09 6.87438e-08
-2.20599e-07 1.94579e-05 -1.3039e-06
-1.90821e-07 1.92949e-05 -1.31984e-06
1.21395e-06 -8.16975e-09 7.67525e-08
1.25035e-06 -7.85868e-09 6.73564e-08
-1.35598e-07 1.81056e-05 -1.23339e-06
1.31215e-06 -7.60421e-09 4.83929e-08
-8.89449e-08 1.63432e-05 -1.11288e-06
-6.97019e-08 1.44194e-05 -9.89997e-07
-4.02602e-08 1.25799e-05 -8.5498e-07
-6.98497e-08 1.44395e-05 -9.93168e-07
-4.09901e-08 1.25975e-05 -8.61861e-07
1.34698e-06 -6.94718e-09 3.87134e-08
1.3813e-06 -6.0828e-09 3.01396e-08
1.27531e-06 -8.80219e-09 8.23387e-08
1.30855e-06 -8.44456e-09 7.08415e-08
-2.32336e-07 1.92866e-05 -1.29682e-06
-2.18512e-07 1.93173e-05 -1.29286e-06
-2.08529e-07 1.93471e-05 -1.30527e-06
-2.11801e-07 1.93757e-05 -1.32623e-06
-2.12672e-07 1.94044e-05 -1.32692e-06
-1.90683e-07 1.92187e-05 -1.34532e-06
-1.29185e-07 1.8056e-05 -1.2364e-06
1.30755e-06 -9.15167e-09 8.52611e-08
1.34056e-06 -8.74057e-09 7.28581e-08
-1.80337e-07 1.91924e-05 -1.3402e-06
-1.22246e-07 1.80305e-05 -1.22919e-06
1.33835e-06 -9.4587e-09 8.81245e-08
-1.73317e-07 1.91639e-05 -1.33374e-06
1.37005e-06 -9.05445e-09 7.46487e-08
-1.18719e-07 1.80037e-05 -1.23101e-06
1.38509e-06 -9.92513e-09 9.19003e-08
1.41802e-06 -9.48524e-09 7.77971e-08
1.45892e-06 -1.07575e-08 9.46797e-08
1.42083e-06 -1.0307e-08 9.30855e-08
-1.51224e-07 1.91025e-05 -1.31337e-06
1.49446e-06 -1.02235e-08 8.05982e-08
-1.19583e-07 1.79478e-05 -1.23629e-06
-1.56005e-07 1.91329e-05 -1.31262e-06
1.45437e-06 -9.84701e-09 7.91453e-08
-1.17338e-07 1.79756e-05 -1.23201e-06
1.34068e-06 -7.84066e-09 4.97847e-08
1.37672e-06 -7.19431e-09 3.82126e-08
1.41141e-06 -6.29123e-09 3.03432e-08
1.37211e-06 -8.0572e-09 5.15329e-08
1.44899e-06 -8.66885e-09 5.40459e-08
1.52565e-06 -9.3033e-09 5.49569e-08
1.48571e-06 -8.99142e-09 5.39384e-08
1.40119e-06 -8.31546e-09 5.1806e-08
-7.90259e-08 1.63196e-05 -1.10753e-06
-6.46955e-08 1.43979e-05 -9.92647e-07
-3.55409e-08 1.25604e-05 -8.57164e-07
1.40866e-06 -7.43005e-09 3.6966e-08
1.44421e-06 -6.50417e-09 3.06111e-08
-6.50184e-08 1.62961e-05 -1.09697e-06
-5.61491e-08 1.43759e-05 -9.87321e-07
-2.93125e-08 1.25407e-05 -8.54457e-07
-6.28813e-08 1.62732e-05 -1.0984e-06
-5.62414e-08 1.43546e-05 -9.8939e-07
-2.87702e-08 1.25217e-05 -8.46842e-07
1.48815e-06 -7.96569e-09 3.92057e-08
1.56616e-06 -8.5264e-09 3.91378e-08
-6.33167e-08 1.62219e-05 -1.09803e-06
-5.76532e-08 1.43075e-05 -9.79956e-07
-2.98998e-08 1.24793e-05 -8.34066e-07
1.60349e-06 -7.64592e-09 3.06091e-08
1.52593e-06 -8.27621e-09 3.8801e-08
1.56298e-06 -7.29309e-09 3.04691e-08
-6.14329e-08 1.62469e-05 -1.09793e-06
-5.45379e-08 1.43306e-05 -9.81674e-07
-2.70791e-08 1.25001e-05 -8.37011e-07
1.52447e-06 -7.04332e-09 3.11052e-08
1.43885e-06 -7.64881e-09 3.6583e-08
1.47425e-06 -6.6787e-09 3.02096e-08
-1.56006e-08 1.09495e-05 -7.40898e-07
-1.69694e-08 9.54547e-06 -6.69108e-07
1.41165e-06 -5.00676e-09 2.27937e-08
1.43999e-06 -4.31228e-09 2.20473e-08
1.46716e-06 -3.87006e-09 2.30243e-08
1.43467e-06 -3.73539e-09 2.30618e-08
-1.8177e-08 1.09655e-05 -7.41829e-07
-1.88029e-08 9.55952e-06 -6.68689e-07
-1.29256e-08 6.1574e-06 -4.29092e-07
1.51033e-06 -2.61905e-09 1.98684e-08
1.53012e-06 -2.34374e-09 1.44993e-08
-1.10036e-08 8.31896e-06 -5.8694e-07
-7.53861e-09 7.2086e-06 -4.98142e-07
-1.11943e-08 8.33198e-06 -5.84131e-07
-8.05457e-09 7.21974e-06 -4.958e-07
-1.30042e-08 6.16673e-06 -4.30167e-07
1.48829e-06 -3.36765e-09 1.8956e-08
-1.26642e-08 6.17643e-06 -4.3185e-07
1.4555e-06 -3.22247e-09 1.92217e-08
1.47681e-06 -2.55676e-09 1.98844e-08
1.49618e-06 -2.30412e-09 1.38049e-08
1.49958e-06 -3.94073e-09 2.34461e-08
1.44365e-06 -5.30947e-09 2.2536e-08
1.47098e-06 -4.4177e-09 2.13335e-08
-1.00712e-08 1.09318e-05 -7.40059e-07
-1.33385e-08 9.52971e-06 -6.69282e-07
1.47871e-06 -5.46703e-09 2.23797e-08
1.5057e-06 -4.41252e-09 2.12193e-08
1.53431e-06 -4.01504e-09 2.39564e-08
-4.34896e-09 1.09143e-05 -7.3938e-07
-8.72139e-09 9.51458e-06 -6.63025e-07
1.5381e-06 -4.48329e-09 2.02334e-08
1.56776e-06 -4.12116e-09 2.40181e-08
1.51016e-06 -5.6707e-09 2.16225e-08
1.56119e-06 -5.86424e-09 2.26962e-08
1.64121e-06 -6.32159e-09 2.30467e-08
1.60037e-06 -6.1128e-09 2.21156e-08
-6.25729e-09 9.49873e-06 -6.616e-07
-1.13441e-09 1.08964e-05 -7.396e-07
-7.24375e-09 9.4649e-06 -6.56397e-07
1.67349e-06 -5.11411e-09 1.61503e-08
1.70677e-06 -4.76274e-09 2.30329e-08
3.67843e-10 1.08582e-05 -7.24155e-07
1.63155e-06 -4.91586e-09 1.69574e-08
1.66389e-06 -4.5553e-09 2.34272e-08
4.52878e-10 1.08776e-05 -7.29418e-07
-6.76103e-09 9.48183e-06 -6.58977e-07
1.59065e-06 -4.6982e-09 1.97288e-08
1.6217e-06 -4.3234e-09 2.4604e-08
1.52103e-06 -3.4432e-09 1.89903e-08
1.54276e-06 -2.72663e-09 1.96248e-08
1.56322e-06 -2.43864e-09 1.4876e-08
-8.18782e-09 8.30512e-06 -5.87014e-07
-1.15568e-08 6.14678e-06 -4.29274e-07
-5.72187e-09 7.19625e-06 -4.99706e-07
1.55617e-06 -3.57217e-09 1.88516e-08
1.57815e-06 -2.8144e-09 1.94713e-08
1.59931e-06 -2.51615e-09 1.55258e-08
-5.8213e-09 8.29109e-06 -5.85548e-07
-1.02743e-08 6.13641e-06 -4.27659e-07
-3.27352e-09 7.18418e-06 -4.99268e-07
-4.85189e-09 8.27689e-06 -5.84357e-07
-4.89572e-09 8.24803e-06 -5.80446e-07
-4.7984e-09 8.26247e-06 -5.82432e-07
1.61247e-06 -2.83453e-09 1.91744e-08
1.63441e-06 -2.54069e-09 1.5895e-08
1.58931e-06 -3.68222e-09 1.83726e-08
-9.51149e-09 6.12543e-06 -4.28571e-07
-1.90817e-09 7.17135e-06 -5.01994e-07
1.78022e-06 -2.80537e-09 1.7872e-08
-1.06403e-08 6.10337e-06 -4.26189e-07
1.73084e-06 -4.06488e-09 1.88153e-08
1.75489e-06 -3.21043e-09 1.76374e-08
-9.54517e-09 6.11468e-06 -4.26465e-07
1.68743e-06 -3.90248e-09 1.88385e-08
1.71105e-06 -3.05626e-09 1.82945e-08
1.73502e-06 -2.73005e-09 1.70277e-08
-2.35637e-09 7.14566e-06 -5.03532e-07
1.66868e-06 -2.91987e-09 1.9235e-08
1.69175e-06 -2.60776e-09 1.70474e-08
-1.75834e-09 7.15888e-06 -5.01274e-07
1.64484e-06 -3.78044e-09 1.93589e-08
-6.34025e-10 4.10653e-06 -2.93989e-07
-2.35298e-09 3.08116e-06 -2.2166e-07
1.54303e-06 -1.28931e-09 1.26294e-08
1.55708e-06 -9.74408e-10 1.34007e-08
-2.53789e-09 5.12966e-06 -3.61997e-07
-2.52113e-09 5.13774e-06 -3.62372e-07
-9.96474e-10 4.11281e-06 -2.94065e-07
-2.41629e-09 3.08591e-06 -2.2171e-07
-1.25413e-09 4.11946e-06 -2.93636e-07
-2.45238e-09 3.09092e-06 -2.2157e-07
1.50857e-06 -1.26347e-09 1.24282e-08
1.5225e-06 -9.88218e-10 1.29536e-08
-1.0584e-09 2.05419e-06 -1.47229e-07
1.86778e-15 -2.55307e-12 1.84185e-13
1.56634e-06 -6.60143e-10 8.05124e-09
1.57269e-06 -3.52944e-11 8.89913e-09
1.57506e-06 2.33025e-10 -3.69636e-09
-3.42858e-10 1.02687e-06 -7.38958e-08
-1.06278e-09 2.05738e-06 -1.47349e-07
-2.59457e-10 1.02851e-06 -7.38941e-08
1.00946e-15 -1.7739e-12 1.2789e-13
-1.00568e-09 2.06073e-06 -1.47628e-07
-1.72657e-10 1.03018e-06 -7.39679e-08
5.75624e-16 -1.32884e-12 9.56554e-14
1.53163e-06 -6.71714e-10 7.53805e-09
1.53794e-06 -7.41112e-11 8.53598e-09
1.5403e-06 1.41986e-10 -3.99924e-09
1.5764e-06 -1.34388e-09 1.2487e-08
1.59071e-06 -1.00595e-09 1.35375e-08
-1.3516e-09 5.12088e-06 -3.61094e-07
-2.19176e-10 4.09936e-06 -2.93371e-07
-2.23278e-09 3.07576e-06 -2.21248e-07
1.61328e-06 -1.36365e-09 1.26862e-08
1.62783e-06 -1.01672e-09 1.37647e-08
7.06423e-10 4.09241e-06 -2.9147e-07
-1.92562e-09 3.07051e-06 -2.19812e-07
-7.9956e-10 5.11191e-06 -3.60533e-07
1.64848e-06 -1.42121e-09 1.22283e-08
1.66335e-06 -1.04394e-09 1.35305e-08
-8.43218e-11 5.10284e-06 -3.6067e-07
9.84903e-10 4.08503e-06 -2.90083e-07
-1.89362e-09 3.06495e-06 -2.18691e-07
1.18958e-09 4.07761e-06 -2.89724e-07
-2.00827e-09 3.05935e-06 -2.18373e-07
-4.99761e-10 5.09342e-06 -3.61798e-07
1.70667e-06 -1.50742e-09 1.25249e-08
1.72213e-06 -1.09581e-09 1.38863e-08
1.75047e-06 -1.6059e-09 1.21005e-08
1.76624e-06 -1.13989e-09 1.35728e-08
-5.69758e-10 5.08397e-06 -3.6163e-07
1.37478e-09 4.06983e-06 -2.89746e-07
-2.14402e-09 3.05349e-06 -2.18532e-07
1.7966e-06 -1.704e-09 1.17778e-08
1.81276e-06 -1.16903e-09 1.36303e-08
1.60019e-06 -6.86062e-10 8.26149e-09
1.60665e-06 -3.39402e-11 8.93159e-09
1.60908e-06 2.71851e-10 -3.74137e-09
-9.14193e-10 2.05057e-06 -1.46886e-07
-3.24936e-10 1.02509e-06 -7.37155e-08
1.63751e-06 -6.53096e-10 8.98649e-09
1.64405e-06 3.58507e-11 9.26055e-09
1.64648e-06 3.768e-10 -3.68634e-09
-6.06743e-10 2.04704e-06 -1.46192e-07
-2.71121e-10 1.02328e-06 -7.33952e-08
1.67331e-06 -6.53211e-10 9.29418e-09
1.68007e-06 4.63092e-11 9.39622e-09
1.68256e-06 4.20173e-10 -3.57236e-09
-5.28376e-10 2.04331e-06 -1.45756e-07
-3.01984e-10 1.02144e-06 -7.31313e-08
-4.89668e-10 2.03956e-06 -1.45515e-07
1.73251e-06 -6.7406e-10 1.00504e-08
1.7395e-06 4.97165e-11 9.63328e-09
1.74208e-06 4.61959e-10 -3.69592e-09
-3.69875e-10 1.01951e-06 -7.30648e-08
1.777e-06 -6.86686e-10 1.08065e-08
1.78417e-06 6.16359e-11 1.0028e-08
1.78684e-06 5.24618e-10 -3.11288e-09
-5.27932e-10 2.03562e-06 -1.45616e-07
-4.64351e-10 1.01758e-06 -7.30335e-08
1.82388e-06 -6.62622e-10 1.17048e-08
1.83122e-06 8.18525e-11 1.01397e-08
1.83393e-06 5.96679e-10 -2.94679e-09
3.37673e-15 -1.13422e-11 8.15642e-13
-1.04968e-09 -2.05418e-06 1.47568e-07
1.57505e-06 -2.28474e-10 3.78453e-09
1.57268e-06 3.95243e-11 -8.83055e-09
1.56634e-06 6.65333e-10 -7.95084e-09
-3.4274e-10 -1.02687e-06 7.40595e-08
-2.59446e-10 -1.0285e-06 7.40239e-08
-1.05362e-09 -2.05738e-06 1.47618e-07
-1.73546e-10 -1.03018e-06 7.4049e-08
-9.951e-10 -2.06073e-06 1.47765e-07
1.54028e-06 -1.37035e-10 4.08151e-09
1.53793e-06 7.91704e-11 -8.49027e-09
1.53163e-06 6.72907e-10 -7.49568e-09
-2.36943e-09 -3.08112e-06 2.22207e-07
-6.26258e-10 -4.1065e-06 2.94589e-07
1.55707e-06 9.86122e-10 -1.33251e-08
1.54304e-06 1.2907e-09 -1.26501e-08
-2.60066e-09 -5.12961e-06 3.62818e-07
-2.43241e-09 -3.08588e-06 2.22218e-07
-9.91022e-10 -4.11278e-06 2.94637e-07
-2.59257e-09 -5.13771e-06 3.63133e-07
-2.47047e-09 -3.0909e-06 2.21935e-07
-1.24982e-09 -4.11945e-06 2.93977e-07
1.5225e-06 9.96929e-10 -1.29182e-08
1.50858e-06 1.26183e-09 -1.24567e-08
3.67534e-15 -5.61746e-12 4.04157e-13
1.07228e-14 -1.54573e-11 1.11373e-12
-1.91099e-15 -8.1008e-12 5.8333e-13
1.60908e-06 -2.71735e-10 3.78844e-09
1.60665e-06 3.43683e-11 -8.89305e-09
1.6002e-06 6.90076e-10 -8.15091e-09
-8.56195e-16 -3.82292e-12 2.76788e-13
-3.24301e-10 -1.02509e-06 7.39126e-08
-9.15866e-10 -2.05057e-06 1.47314e-07
1.64648e-06 -3.81511e-10 3.74631e-09
1.64406e-06 -4.0191e-11 -9.2038e-09
1.63753e-06 6.51588e-10 -8.83103e-09
-6.02481e-10 -2.04704e-06 1.46635e-07
-2.67447e-10 -1.02328e-06 7.3599e-08
1.68257e-06 -4.23295e-10 3.63554e-09
1.68008e-06 -4.87723e-11 -9.32922e-09
1.67333e-06 6.52589e-10 -9.1101e-09
-3.01097e-10 -1.02145e-06 7.32988e-08
-5.3317e-10 -2.04332e-06 1.4618e-07
-4.87871e-10 -2.03957e-06 1.45848e-07
1.74209e-06 -4.66728e-10 3.72139e-09
1.73952e-06 -5.38091e-11 -9.59188e-09
1.73254e-06 6.71437e-10 -9.92001e-09
-3.65914e-10 -1.01953e-06 7.31614e-08
1.78684e-06 -5.37465e-10 3.05905e-09
1.7842e-06 -7.37151e-11 -1.00352e-08
1.77704e-06 6.7729e-10 -1.08384e-08
-4.47391e-10 -1.01761e-06 7.29305e-08
-5.36639e-10 -2.03566e-06 1.45608e-07
1.83387e-06 -6.03844e-10 2.8117e-09
1.83111e-06 -8.87721e-11 -1.01623e-08
1.82371e-06 6.58497e-10 -1.16474e-08
1.59073e-06 1.0105e-09 -1.34711e-08
1.57642e-06 1.34001e-09 -1.25104e-08
-2.2601e-09 -3.07574e-06 2.21896e-07
-2.38666e-10 -4.09934e-06 2.94121e-07
-1.38296e-09 -5.12085e-06 3.61629e-07
1.62785e-06 1.01524e-09 -1.36552e-08
1.61331e-06 1.35466e-09 -1.26807e-08
-1.94546e-09 -3.0705e-06 2.20395e-07
6.97784e-10 -4.0924e-06 2.92135e-07
-8.15556e-10 -5.11187e-06 3.60955e-07
1.66338e-06 1.04271e-09 -1.33913e-08
1.64852e-06 1.41532e-09 -1.22101e-08
-1.92016e-09 -3.06494e-06 2.19264e-07
9.62739e-10 -4.08501e-06 2.90844e-07
-1.22793e-10 -5.10282e-06 3.61065e-07
-2.02276e-09 -3.05935e-06 2.18801e-07
1.18138e-09 -4.0776e-06 2.90391e-07
1.72217e-06 1.09224e-09 -1.37791e-08
1.70672e-06 1.50303e-09 -1.24716e-08
-5.62005e-10 -5.09342e-06 3.62143e-07
1.76629e-06 1.1289e-09 -1.35743e-08
1.75054e-06 1.60072e-09 -1.21518e-08
-2.05832e-09 -3.05351e-06 2.18467e-07
1.41889e-09 -4.06984e-06 2.89835e-07
-7.25119e-10 -5.08404e-06 3.6131e-07
1.81255e-06 1.16814e-09 -1.35138e-08
1.79631e-06 1.70549e-09 -1.16075e-08
-1.29731e-08 -6.15738e-06 4.29747e-07
1.51035e-06 2.61053e-09 -2.00453e-08
-7.62548e-09 -7.20857e-06 4.99279e-07
-1.10858e-08 -8.31894e-06 5.87891e-07
-1.30629e-08 -6.16672e-06 4.30771e-07
-8.14774e-09 -7.21972e-06 4.96909e-07
1.52968e-06 2.40513e-09 -1.42047e-08
1.48831e-06 3.36205e-09 -1.91057e-08
-1.27353e-08 -6.17643e-06 4.32372e-07
1.49619e-06 2.29486e-09 -1.38784e-08
1.47682e-06 2.54792e-09 -2.00668e-08
1.45551e-06 3.21674e-09 -1.93702e-08
-1.20597e-08 -8.33169e-06 5.85388e-07
-1.7117e-08 -9.54548e-06 6.69635e-07
-1.56879e-08 -1.09495e-05 7.41365e-07
1.46718e-06 3.8662e-09 -2.31125e-08
1.44001e-06 4.30825e-09 -2.21057e-08
1.41167e-06 5.00353e-09 -2.28394e-08
1.43469e-06 3.73293e-09 -2.31582e-08
-1.89407e-08 -9.55953e-06 6.69202e-07
-1.82525e-08 -1.09655e-05 7.42272e-07
1.56322e-06 2.44665e-09 -1.48902e-08
1.54278e-06 2.73221e-09 -1.97265e-08
1.52104e-06 3.44751e-09 -1.90729e-08
-1.15648e-08 -6.14673e-06 4.29697e-07
-8.12659e-09 -8.30508e-06 5.87415e-07
-5.74458e-09 -7.1962e-06 5.00418e-07
1.59932e-06 2.51978e-09 -1.55085e-08
1.57817e-06 2.8165e-09 -1.95076e-08
1.55619e-06 3.57325e-09 -1.88736e-08
-1.02689e-08 -6.13635e-06 4.27965e-07
-3.29144e-09 -7.18413e-06 4.99852e-07
-5.76066e-09 -8.291e-06 5.85783e-07
1.63444e-06 2.54818e-09 -1.58646e-08
1.61251e-06 2.84107e-09 -1.9173e-08
1.58935e-06 3.68807e-09 -1.83644e-08
-9.52818e-09 -6.12538e-06 4.28862e-07
-1.93231e-09 -7.17131e-06 5.02363e-07
1.77993e-06 2.80039e-09 -1.78896e-08
-1.07394e-08 -6.10338e-06 4.26501e-07
1.75457e-06 3.20814e-09 -1.76468e-08
1.7305e-06 4.06633e-09 -1.88231e-08
-9.59267e-09 -6.11466e-06 4.2675e-07
1.73509e-06 2.74101e-09 -1.70508e-08
1.71113e-06 3.0671e-09 -1.82983e-08
1.68751e-06 3.91441e-09 -1.88392e-08
-2.45527e-09 -7.14566e-06 5.03754e-07
1.6918e-06 2.61577e-09 -1.69989e-08
1.66873e-06 2.92536e-09 -1.92023e-08
-1.7829e-09 -7.15886e-06 5.01438e-07
1.64489e-06 3.78419e-09 -1.93388e-08
-4.80887e-09 -8.2768e-06 5.84547e-07
-4.97126e-09 -8.24795e-06 5.80707e-07
-4.77331e-09 -8.26239e-06 5.82542e-07
1.49962e-06 3.94372e-09 -2.35286e-08
1.47102e-06 4.4159e-09 -2.13881e-08
1.44366e-06 5.30023e-09 -2.25403e-08
-1.34208e-08 -9.5297e-06 6.69596e-07
-1.01224e-08 -1.09318e-05 7.40323e-07
1.53436e-06 4.01575e-09 -2.40331e-08
1.50575e-06 4.40809e-09 -2.12681e-08
1.47873e-06 5.45455e-09 -2.23769e-08
-8.79624e-09 -9.51451e-06 6.63295e-07
-4.39097e-09 -1.09142e-05 7.39595e-07
1.56783e-06 4.12193e-09 -2.40873e-08
1.53817e-06 4.47865e-09 -2.02753e-08
1.5102e-06 5.65745e-09 -2.16123e-08
-6.29285e-09 -9.49866e-06 6.61718e-07
-1.1494e-09 -1.08963e-05 7.39692e-07
-7.18423e-09 -9.46484e-06 6.56125e-07
1.70641e-06 4.76226e-09 -2.30553e-08
1.6731e-06 5.1099e-09 -1.61643e-08
1.66398e-06 4.55846e-09 -2.34367e-08
1.63165e-06 4.9125e-09 -1.69585e-08
4.15733e-10 -1.08582e-05 7.23949e-07
-6.77037e-09 -9.48176e-06 6.58985e-07
4.54047e-10 -1.08775e-05 7.29438e-07
1.62178e-06 4.32472e-09 -2.46341e-08
1.59073e-06 4.69477e-09 -1.9745e-08
1.56125e-06 5.85238e-09 -2.26704e-08
1.6408e-06 6.31409e-09 -2.30473e-08
1.60044e-06 6.09893e-09 -2.20795e-08
-4.02626e-08 -1.25798e-05 8.55151e-07
-6.96453e-08 -1.44194e-05 9.9006e-07
-8.8944e-08 -1.63432e-05 1.1129e-06
1.31216e-06 7.60314e-09 -4.8385e-08
-4.09914e-08 -1.25975e-05 8.62033e-07
-6.97918e-08 -1.44394e-05 9.93228e-07
1.38131e-06 6.07773e-09 -3.0165e-08
1.347e-06 6.94552e-09 -3.87124e-08
-1.8862e-07 -1.92458e-05 1.32014e-06
-1.33192e-07 -1.80824e-05 1.23567e-06
1.24451e-06 8.50106e-09 -7.88328e-08
-2.16347e-07 -1.94322e-05 1.31579e-06
-1.90611e-07 -1.92698e-05 1.31282e-06
1.27936e-06 8.17222e-09 -6.87391e-08
-1.90804e-07 -1.92949e-05 1.31985e-06
1.25036e-06 7.85738e-09 -6.73563e-08
1.21396e-06 8.17011e-09 -7.67532e-08
-1.35589e-07 -1.81056e-05 1.2334e-06
-2.20571e-07 -1.94579e-05 1.30388e-06
1.41142e-06 6.28147e-09 -3.03367e-08
1.37674e-06 7.19008e-09 -3.81921e-08
1.34071e-06 7.83856e-09 -4.9762e-08
-3.55903e-08 -1.25604e-05 8.5739e-07
-6.46866e-08 -1.43979e-05 9.92779e-07
-7.90717e-08 -1.63197e-05 1.10761e-06
1.44423e-06 6.49091e-09 -3.05975e-08
1.40869e-06 7.42265e-09 -3.69442e-08
-2.93484e-08 -1.25406e-05 8.54627e-07
-5.61243e-08 -1.43758e-05 9.87392e-07
-6.50444e-08 -1.6296e-05 1.09697e-06
-2.87937e-08 -1.25216e-05 8.46925e-07
-5.62289e-08 -1.43546e-05 9.89423e-07
-6.2879e-08 -1.62732e-05 1.09838e-06
1.48822e-06 7.95872e-09 -3.91838e-08
1.5657e-06 8.52006e-09 -3.91227e-08
-2.99017e-08 -1.24792e-05 8.33982e-07
-5.76867e-08 -1.43075e-05 9.79986e-07
-6.33047e-08 -1.62218e-05 1.09801e-06
1.60304e-06 7.62775e-09 -3.05749e-08
1.56305e-06 7.27747e-09 -3.04392e-08
1.52601e-06 8.26926e-09 -3.87791e-08
-2.70987e-08 -1.25e-05 8.37071e-07
-5.45423e-08 -1.43305e-05 9.81745e-07
-6.14257e-08 -1.62468e-05 1.0979e-06
1.52452e-06 7.03131e-09 -3.1079e-08
1.47428e-06 6.66449e-09 -3.01892e-08
1.4389e-06 7.64191e-09 -3.65612e-08
1.37214e-06 8.0517e-09 -5.15105e-08
1.44906e-06 8.66372e-09 -5.40239e-08
1.52516e-06 9.29612e-09 -5.49306e-08
1.4858e-06 8.98636e-09 -5.39167e-08
1.40124e-06 8.31035e-09 -5.17839e-08
1.27535e-06 8.80294e-09 -8.23374e-08
1.30858e-06 8.44425e-09 -7.08259e-08
-1.90706e-07 -1.92188e-05 1.34537e-06
-1.29221e-07 -1.8056e-05 1.23646e-06
1.34061e-06 8.73685e-09 -7.28424e-08
1.3076e-06 9.15369e-09 -8.52627e-08
-1.80332e-07 -1.91923e-05 1.34015e-06
-1.22258e-07 -1.80304e-05 1.22915e-06
-1.73289e-07 -1.91638e-05 1.33368e-06
1.33842e-06 9.46098e-09 -8.81272e-08
1.37011e-06 9.05105e-09 -7.46333e-08
-1.18704e-07 -1.80036e-05 1.23096e-06
1.41809e-06 9.48192e-09 -7.77821e-08
1.38518e-06 9.92768e-09 -9.19043e-08
1.49395e-06 1.02156e-08 -8.05638e-08
-1.51183e-07 -1.91024e-05 1.31326e-06
-1.19548e-07 -1.79477e-05 1.23618e-06
1.45447e-06 9.84381e-09 -7.91307e-08
-1.5597e-07 -1.91328e-05 1.31255e-06
-1.17317e-07 -1.79755e-05 1.23195e-06
1.45838e-06 1.07558e-08 -9.46431e-08
1.42093e-06 1.03099e-08 -9.30908e-08
-2.32289e-07 -1.92864e-05 1.29672e-06
-2.18463e-07 -1.93172e-05 1.29276e-06
-2.0848e-07 -1.93469e-05 1.30517e-06
-2.11762e-07 -1.93756e-05 1.32613e-06
-2.12647e-07 -1.94044e-05 1.32688e-06
1.38652e-06 1.01544e-08 -3.50494e-08
1.35258e-06 9.78733e-09 -3.87195e-08
1.32019e-06 9.47113e-09 -4.32155e-08
-2.95958e-07 -1.83102e-05 1.25084e-06
-2.87059e-07 -1.83392e-05 1.2605e-06
1.31732e-06 9.52265e-09 2.46074e-08
1.27729e-06 9.08494e-09 -4.58535e-08
1.25247e-06 8.78546e-09 -5.01112e-08
-2.76494e-07 -1.83679e-05 1.23186e-06
1.28567e-06 9.15304e-09 1.62992e-08
-2.77416e-07 -1.83957e-05 1.23834e-06
1.25539e-06 8.81068e-09 1.2569e-08
1.22348e-06 8.52659e-09 -5.12935e-08
-2.76448e-07 -1.84242e-05 1.22172e-06
-2.80296e-07 -1.64693e-05 1.07694e-06
1.1968e-06 8.26036e-09 -5.21535e-08
1.21492e-06 8.42278e-09 8.98052e-09
-2.76213e-07 -1.84513e-05 1.2282e-06
1.1925e-06 8.16547e-09 2.76031e-09
-2.72469e-07 -1.6498e-05 1.0896e-06
-2.87317e-07 1.82779e-05 -1.22223e-06
-2.70242e-07 1.64381e-05 -1.06223e-06
1.40907e-06 -1.04975e-08 3.19985e-08
1.33897e-06 -9.87403e-09 -2.97767e-08
1.39468e-06 -1.03275e-08 -1.56352e-07
-2.80404e-07 1.82462e-05 -1.22757e-06
-2.66104e-07 1.64077e-05 -1.07823e-06
1.44331e-06 -1.0898e-08 2.65383e-08
1.37074e-06 -1.02886e-08 -3.76612e-08