# vtk DataFile Version 3.0
vtk output
ASCII
DATASET POLYDATA
POINTS 10807 float
0.188055 0.539712 -0.0311527
0.198273 0.544647 -0.0310044
0.188124 0.529726 -0.0305354
0.198334 0.534661 -0.0303678
0.208535 0.539608 -0.0303178
0.218727 0.544543 -0.0303323
0.239104 0.54445 -0.0299953
0.259309 0.544496 -0.0300607
0.319614 0.544313 -0.0300883
0.379953 0.544198 -0.0300607
0.499967 0.544139 -0.0300129
0.811945 0.539712 -0.0311527
0.801727 0.544647 -0.0310044
0.811876 0.529726 -0.0305354
0.801666 0.534661 -0.0303678
0.620051 0.544215 -0.0300497
0.680381 0.544317 -0.030081
0.740682 0.544499 -0.0300423
0.760896 0.54445 -0.0299953
0.791465 0.539608 -0.0303178
0.781273 0.544543 -0.0303322
0.167611 0.609543 -0.0334718
0.157363 0.604624 -0.0329757
0.147069 0.609679 -0.0329479
0.167675 0.59958 -0.0328298
0.157434 0.594663 -0.0323571
0.14715 0.599715 -0.0323371
0.167735 0.589622 -0.0322077
0.136895 0.604784 -0.0321025
0.157505 0.584707 -0.0317468
0.147227 0.589756 -0.0317482
0.12666 0.609852 -0.0316604
0.167801 0.579668 -0.0315815
0.136982 0.594819 -0.0315232
0.147311 0.5798 -0.0311425
0.126754 0.599884 -0.0310962
0.167867 0.569718 -0.0309622
0.157593 0.574764 -0.0311234
0.137067 0.58486 -0.0309502
0.147398 0.569851 -0.0305439
0.126844 0.589923 -0.0305601
0.16796 0.559762 -0.0302879
0.15769 0.564805 -0.0304829
0.137164 0.574908 -0.030369
0.126949 0.579966 -0.029995
0.187969 0.549691 -0.031799
0.208476 0.549584 -0.0309764
0.2289 0.549482 -0.0304433
0.198189 0.55461 -0.0316794
0.218668 0.554502 -0.0309947
0.187865 0.559654 -0.032475
0.2084 0.559539 -0.0316438
0.228856 0.559434 -0.0311181
0.198106 0.564565 -0.0323596
0.218613 0.564451 -0.0316761
0.177854 0.604493 -0.0333281
0.177907 0.594534 -0.032685
0.177962 0.584581 -0.0320543
0.178022 0.574632 -0.0314274
0.187764 0.569611 -0.0331732
0.208335 0.569488 -0.0323337
0.228813 0.569377 -0.0318038
0.198031 0.574527 -0.0330423
0.218565 0.574409 -0.0323504
0.187686 0.579569 -0.0338141
0.208288 0.579441 -0.0329765
0.228783 0.579328 -0.0324377
0.19797 0.584484 -0.0336905
0.218528 0.584362 -0.0329943
0.18761 0.58953 -0.0344633
0.208243 0.589398 -0.033625
0.228756 0.589281 -0.0330784
0.197913 0.594445 -0.0343416
0.218497 0.594319 -0.033643
0.187537 0.599493 -0.0351175
0.208202 0.599356 -0.0342796
0.228733 0.599238 -0.0337305
0.197859 0.604408 -0.0350024
0.218467 0.604278 -0.0343036
0.187471 0.609472 -0.0357236
0.208163 0.609319 -0.0349464
0.228711 0.609197 -0.0343961
0.178116 0.564675 -0.0307335
0.178213 0.554717 -0.0300856
0.157286 0.614597 -0.0336157
0.1368 0.614759 -0.0327073
0.106484 0.669843 -0.0313116
0.106582 0.659871 -0.0306672
0.16754 0.619525 -0.0341302
0.14698 0.619661 -0.0335806
0.126555 0.619838 -0.0322547
0.157208 0.624584 -0.0342686
0.136686 0.624732 -0.033354
0.167459 0.629506 -0.0348147
0.116459 0.674715 -0.033335
0.11656 0.66474 -0.0326444
0.116645 0.654758 -0.0319936
0.116727 0.644781 -0.0313392
0.146893 0.62966 -0.0342283
0.126451 0.629837 -0.0328716
0.157134 0.634589 -0.0349349
0.136592 0.634734 -0.0339936
0.167397 0.639519 -0.0354941
0.146793 0.639647 -0.0349173
0.126364 0.639841 -0.0334504
0.157045 0.644585 -0.0356415
0.13651 0.644744 -0.0346134
0.167337 0.649532 -0.0361863
0.146718 0.649666 -0.035565
0.126242 0.649831 -0.0341325
0.156975 0.65461 -0.0363118
0.136392 0.654746 -0.0353369
0.167272 0.659561 -0.0368719
0.14663 0.659685 -0.0362718
0.126109 0.659834 -0.0348532
0.156894 0.664631 -0.0370323
0.136287 0.664767 -0.036052
0.167179 0.669574 -0.0376205
0.14651 0.669697 -0.037019
0.125962 0.669845 -0.0356091
0.156783 0.674648 -0.037783
0.136149 0.674782 -0.0368055
0.116833 0.634802 -0.030663
0.106687 0.649893 -0.0300199
0.11694 0.62482 -0.0300083
0.177797 0.614465 -0.0339954
0.197805 0.614387 -0.0356769
0.218437 0.614251 -0.0349786
0.187396 0.619447 -0.0364307
0.208123 0.619309 -0.0356269
0.228689 0.619181 -0.0350743
0.177739 0.624454 -0.0346827
0.197749 0.62438 -0.0363763
0.218409 0.624248 -0.0356602
0.187318 0.629434 -0.0372024
0.208083 0.62931 -0.0363272
0.228663 0.629202 -0.0357265
0.177669 0.634452 -0.035384
0.177621 0.644464 -0.0360695
0.177571 0.654481 -0.0367706
0.177515 0.664514 -0.0374723
0.177439 0.674529 -0.0382144
0.197691 0.634377 -0.0371185
0.21838 0.634261 -0.0363697
0.187241 0.63943 -0.037968
0.20804 0.639309 -0.0370798
0.228642 0.639205 -0.0364596
0.197638 0.644382 -0.0378644
0.218354 0.644268 -0.0371021
0.18717 0.649451 -0.0387044
0.208003 0.649332 -0.0378056
0.228626 0.64923 -0.0371673
0.197584 0.654406 -0.0386014
0.218328 0.654293 -0.0378263
0.207964 0.659358 -0.0385421
0.228607 0.659258 -0.0378878
0.187081 0.659471 -0.0394454
0.218295 0.664325 -0.0385449
0.197517 0.664433 -0.0393451
0.228584 0.669288 -0.0386265
0.187004 0.669504 -0.0402148
0.207912 0.669391 -0.0392894
0.197456 0.674468 -0.0401178
0.218257 0.674358 -0.0393111
0.096374 0.684931 -0.030285
0.0962093 0.694891 -0.0309223
0.0961117 0.704856 -0.0314901
0.0960238 0.714822 -0.0320657
0.0959391 0.724792 -0.0326437
0.0958736 0.734775 -0.0332009
0.0958211 0.744767 -0.0337685
0.0957718 0.754793 -0.0343319
0.0957515 0.764861 -0.0348269
0.0859374 0.769779 -0.0326436
0.0957406 0.77493 -0.0352861
0.0859181 0.779842 -0.0330618
0.095732 0.784985 -0.0358034
0.0859106 0.789935 -0.0335083
0.0957276 0.795045 -0.036336
0.0859157 0.800102 -0.0339603
0.0957192 0.805122 -0.0368602
0.0858989 0.810179 -0.0345228
0.085958 0.759751 -0.0322132
0.0763544 0.805127 -0.0314486
0.0860517 0.749786 -0.0316599
0.0763565 0.795047 -0.0309515
0.0861048 0.739824 -0.0311077
0.0763412 0.784983 -0.0304709
0.0861664 0.729871 -0.0305687
0.0862417 0.719911 -0.030025
0.0763283 0.774942 -0.029985
0.106367 0.679797 -0.0319724
0.167092 0.679588 -0.0383635
0.146399 0.679713 -0.037756
0.125827 0.679859 -0.0363375
0.116322 0.684661 -0.0340359
0.156676 0.684648 -0.0385359
0.135989 0.684772 -0.037576
0.106228 0.689749 -0.032644
0.106098 0.699723 -0.0332598
0.106004 0.709716 -0.0338279
0.105921 0.719716 -0.0344
0.105849 0.729723 -0.0349793
0.105785 0.739746 -0.0355534
0.166989 0.689584 -0.0391106
0.146255 0.689704 -0.0385266
0.125651 0.689833 -0.0371048
0.11619 0.694614 -0.0346731
0.116092 0.704629 -0.0352504
0.115995 0.714647 -0.0358385
0.115911 0.724677 -0.0364187
0.115846 0.734716 -0.0370114
0.115787 0.744725 -0.0376137
0.156559 0.694632 -0.039272
0.135826 0.694752 -0.0383273
0.166911 0.69955 -0.0398133
0.146155 0.699664 -0.039223
0.125509 0.699785 -0.03778
0.156497 0.70459 -0.0399267
0.135742 0.704694 -0.0389743
0.146081 0.709618 -0.0398584
0.16686 0.709519 -0.0404798
0.125417 0.709729 -0.0383947
0.156437 0.714557 -0.0405948
0.135658 0.714647 -0.0396375
0.166809 0.719503 -0.0411273
0.146012 0.719586 -0.0405257
0.125289 0.719676 -0.039104
0.156383 0.724537 -0.0412671
0.135582 0.724615 -0.040298
0.166765 0.729496 -0.0418075
0.145947 0.729569 -0.0411954
0.125202 0.729647 -0.0397601
0.156329 0.734537 -0.0419225
0.135512 0.734599 -0.0409243
0.166718 0.739507 -0.0425055
0.145884 0.739569 -0.0418757
0.125082 0.739623 -0.0404573
0.156272 0.744553 -0.0426221
0.135439 0.744604 -0.0416012
0.186916 0.679528 -0.0410047
0.207857 0.679413 -0.0400633
0.228542 0.679317 -0.0393675
0.177356 0.684521 -0.0389762
0.197378 0.684476 -0.040913
0.218203 0.68437 -0.0400668
0.186819 0.689533 -0.0418174
0.207792 0.689416 -0.0408621
0.228496 0.689317 -0.0401473
0.177177 0.714455 -0.0410153
0.177134 0.724453 -0.0416726
0.177099 0.734458 -0.0423626
0.177058 0.74448 -0.0430745
0.17725 0.694498 -0.0397423
0.177201 0.704472 -0.0403956
0.197293 0.694463 -0.0416932
0.21814 0.694355 -0.040871
0.18673 0.699496 -0.042586
0.207734 0.699388 -0.0415887
0.228455 0.69929 -0.0408885
0.197242 0.704427 -0.0424012
0.218112 0.704327 -0.0415664
0.186678 0.709468 -0.0432477
0.186555 0.739524 -0.0452358
0.186634 0.719464 -0.0439092
0.186586 0.729478 -0.0445965
0.2077 0.709363 -0.0422892
0.228435 0.709283 -0.0415522
0.197193 0.714406 -0.0431483
0.21809 0.714317 -0.042259
0.207669 0.719363 -0.0429881
0.228421 0.719289 -0.0422359
0.197156 0.724409 -0.0438364
0.218074 0.724325 -0.0429426
0.207645 0.729382 -0.0436772
0.228414 0.729312 -0.0429144
0.19712 0.734438 -0.0445311
0.218059 0.734356 -0.0436356
0.207621 0.73943 -0.0443769
0.228404 0.739358 -0.0436111
0.197085 0.744492 -0.0452322
0.218042 0.744411 -0.0443443
0.105742 0.749776 -0.036095
0.105702 0.759798 -0.0366803
0.105686 0.769845 -0.0372034
0.105668 0.779907 -0.0377235
0.105643 0.789982 -0.0382564
0.10564 0.800061 -0.0388038
0.105622 0.810144 -0.0393613
0.166675 0.749528 -0.0431619
0.145828 0.749578 -0.0425179
0.125012 0.749618 -0.0410771
0.115742 0.754718 -0.0381616
0.115718 0.764762 -0.0387584
0.115705 0.774832 -0.0392968
0.115661 0.784912 -0.0398432
0.115661 0.794985 -0.0403934
0.115659 0.80507 -0.040975
0.156233 0.754572 -0.0432217
0.135387 0.754611 -0.0421901
0.166646 0.759564 -0.043788
0.145789 0.759603 -0.043123
0.124961 0.75963 -0.0416621
0.156228 0.764616 -0.0437607
0.135377 0.764625 -0.0427035
0.166668 0.769647 -0.0442779
0.145809 0.769646 -0.0435887
0.124977 0.76963 -0.0421033
0.156247 0.774682 -0.0443083
0.135385 0.774663 -0.0432398
0.166683 0.779768 -0.0448277
0.145817 0.779734 -0.0441128
0.125007 0.779686 -0.0425799
0.156261 0.7848 -0.0448555
0.135389 0.784751 -0.0437604
0.166704 0.78994 -0.0454308
0.145833 0.789879 -0.0446766
0.125014 0.7898 -0.0431161
0.156284 0.794981 -0.0454428
0.135408 0.794908 -0.0443107
0.166722 0.800169 -0.0460799
0.145851 0.800088 -0.0452695
0.125024 0.799981 -0.0436744
0.15629 0.805294 -0.0460997
0.135418 0.80513 -0.0449045
0.166717 0.810459 -0.0468092
0.145849 0.810366 -0.0459317
0.125019 0.810245 -0.0442923
0.186511 0.749572 -0.0459068
0.207599 0.749482 -0.0450479
0.228394 0.749414 -0.0442777
0.177023 0.754486 -0.0437225
0.17702 0.764555 -0.0442743
0.177045 0.774676 -0.0448115
0.177066 0.784831 -0.0453851
0.177094 0.795042 -0.0460143
0.177109 0.805297 -0.046713
0.197056 0.754546 -0.0458648
0.21803 0.754467 -0.0449726
0.186489 0.759658 -0.0465029
0.207582 0.759563 -0.0456962
0.228386 0.759491 -0.0449291
0.197053 0.764616 -0.0464416
0.218039 0.764543 -0.0455425
0.186484 0.769715 -0.0470728
[...]
POINT_DATA 10807
VECTORS alpha float
2.98501e-06 -1.61009e-08 1.58006e-07
-5.50846e-08 1.74676e-05 -1.18995e-06
2.92101e-06 -1.52589e-08 1.58793e-07
-5.26969e-08 1.75394e-05 -1.18427e-06
3.11843e-06 -1.57118e-08 1.13423e-07
-1.34714e-08 1.63869e-05 -1.11596e-06
1.65473e-08 1.47726e-05 -1.00314e-06
3.70507e-09 1.29846e-05 -9.09959e-07
1.19868e-08 8.49346e-06 -6.08969e-07
6.4395e-09 5.44819e-06 -3.88027e-07
6.02026e-16 -4.30307e-12 3.13168e-13
2.9851e-06 1.61003e-08 -1.58011e-07
-5.50823e-08 -1.74676e-05 1.18994e-06
2.92108e-06 1.52583e-08 -1.58798e-07
-5.26954e-08 -1.75394e-05 1.18427e-06
6.49681e-09 -5.44893e-06 3.89182e-07
1.24847e-08 -8.49357e-06 6.08241e-07
4.89945e-09 -1.29847e-05 9.07239e-07
1.65494e-08 -1.47726e-05 1.00313e-06
3.11852e-06 1.57111e-08 -1.13426e-07
-1.3469e-08 -1.63869e-05 1.11595e-06
3.46084e-06 -2.08063e-08 -3.45853e-08
-5.67793e-08 1.6228e-05 -1.18149e-06
3.28256e-06 -1.93922e-08 -1.29676e-07
3.37608e-06 -2.03388e-08 -2.95379e-08
-5.09286e-08 1.63055e-05 -1.16217e-06
3.19999e-06 -1.89092e-08 -1.21205e-07
3.29165e-06 -1.98371e-08 -2.43823e-08
-1.12807e-07 1.45221e-05 -1.04242e-06
-4.95051e-08 1.63822e-05 -1.14772e-06
3.11842e-06 -1.83934e-08 -1.12663e-07
3.09988e-06 -1.7246e-08 -2.41941e-07
3.21099e-06 -1.9264e-08 -2.16583e-08
-1.07721e-07 1.45962e-05 -1.02295e-06
3.04099e-06 -1.78581e-08 -1.06647e-07
3.02047e-06 -1.67766e-08 -2.29182e-07
3.13196e-06 -1.87467e-08 -1.90695e-08
-6.22342e-08 1.64606e-05 -1.14091e-06
-1.06009e-07 1.46689e-05 -1.00958e-06
2.96518e-06 -1.73834e-08 -1.00732e-07
2.94266e-06 -1.6381e-08 -2.16129e-07
3.0511e-06 -1.74422e-08 -1.71521e-08
-6.76055e-08 1.65366e-05 -1.13078e-06
-1.09675e-07 1.47397e-05 -1.00471e-06
2.86892e-06 -1.60319e-08 -2.05848e-07
3.05029e-06 -1.72083e-08 1.59554e-07
3.18538e-06 -1.66686e-08 1.14711e-07
3.31562e-06 -1.55212e-08 5.77141e-08
-5.01847e-08 1.73902e-05 -1.20016e-06
-9.94308e-09 1.63139e-05 -1.12408e-06
3.2269e-06 -1.92871e-08 1.69184e-07
3.36824e-06 -1.84373e-08 1.20172e-07
3.50462e-06 -1.71318e-08 6.28925e-08
-4.59676e-08 1.73075e-05 -1.21092e-06
-5.30307e-09 1.62356e-05 -1.13187e-06
-1.10447e-08 1.71429e-05 -1.25219e-06
-9.1666e-09 1.72219e-05 -1.23551e-06
-1.17752e-08 1.73001e-05 -1.22205e-06
-1.8657e-08 1.73773e-05 -1.21521e-06
3.31575e-06 -2.1148e-08 1.7479e-07
3.45912e-06 -2.00941e-08 1.249e-07
3.59758e-06 -1.85227e-08 6.7348e-08
-4.31877e-08 1.72281e-05 -1.22073e-06
-2.18214e-09 1.61599e-05 -1.14064e-06
3.4019e-06 -2.20299e-08 1.78415e-07
3.54658e-06 -2.07859e-08 1.2885e-07
3.68624e-06 -1.89718e-08 7.16215e-08
-3.84903e-08 1.71497e-05 -1.22357e-06
1.91582e-09 1.60846e-05 -1.14536e-06
3.48979e-06 -2.28987e-08 1.82552e-07
3.63518e-06 -2.14567e-08 1.33123e-07
3.77532e-06 -1.93948e-08 7.62189e-08
-3.55749e-08 1.70708e-05 -1.22836e-06
4.40825e-09 1.6009e-05 -1.15196e-06
3.58195e-06 -2.37352e-08 1.87242e-07
3.72722e-06 -2.21035e-08 1.3703e-07
3.86699e-06 -1.97317e-08 7.95487e-08
-3.42498e-08 1.6992e-05 -1.2349e-06
5.22825e-09 1.59329e-05 -1.16001e-06
3.67309e-06 -2.41625e-08 1.86954e-07
3.81784e-06 -2.26284e-08 1.41053e-07
3.95594e-06 -1.99922e-08 8.29483e-08
-2.48211e-08 1.74568e-05 -1.20584e-06
-3.2403e-08 1.75426e-05 -1.18029e-06
-5.78035e-08 1.61496e-05 -1.19478e-06
-1.13476e-07 1.44472e-05 -1.05637e-06
3.48709e-06 -2.2413e-08 -5.75936e-07
3.37052e-06 -2.27623e-08 -5.44279e-07
3.55448e-06 -2.11513e-08 -3.90807e-08
3.37372e-06 -1.97738e-08 -1.37872e-07
3.18735e-06 -1.76783e-08 -2.54625e-07
-5.2821e-08 1.60701e-05 -1.20106e-06
-1.02863e-07 1.43696e-05 -1.06417e-06
3.65772e-06 -2.13004e-08 -4.12953e-08
-8.95225e-08 1.24542e-05 -8.34902e-07
-7.94637e-08 1.25457e-05 -8.30331e-07
-7.03474e-08 1.26335e-05 -8.23268e-07
-6.21896e-08 1.27134e-05 -8.13969e-07
3.4731e-06 -1.99193e-08 -1.45543e-07
3.28254e-06 -1.78897e-08 -2.67106e-07
-3.94274e-08 1.59891e-05 -1.19494e-06
-9.11947e-08 1.42929e-05 -1.06211e-06
3.77236e-06 -2.12215e-08 -4.35314e-08
3.58532e-06 -1.99632e-08 -1.51674e-07
3.3868e-06 -1.7707e-08 -2.8221e-07
-2.77443e-08 1.59042e-05 -1.18805e-06
-9.37489e-08 1.42163e-05 -1.05724e-06
3.89635e-06 -2.14748e-08 -4.59918e-08
3.70285e-06 -1.98671e-08 -1.60485e-07
3.49942e-06 -1.79147e-08 -2.94772e-07
-3.42039e-08 1.58201e-05 -1.18071e-06
-8.69884e-08 1.41294e-05 -1.05138e-06
4.04254e-06 -2.19603e-08 -5.09891e-08
3.84196e-06 -2.06506e-08 -1.68871e-07
3.62989e-06 -1.85978e-08 -3.07891e-07
-4.05569e-08 1.57264e-05 -1.18507e-06
-9.10362e-08 1.40373e-05 -1.05081e-06
4.20322e-06 -2.29591e-08 -5.23232e-08
3.99149e-06 -2.15503e-08 -1.76489e-07
3.76683e-06 -1.95903e-08 -3.20865e-07
-4.00943e-08 1.56254e-05 -1.19044e-06
-9.07083e-08 1.39363e-05 -1.05094e-06
-6.33092e-08 1.27946e-05 -8.12886e-07
3.2562e-06 -2.27325e-08 -5.16643e-07
-7.01007e-08 1.28761e-05 -8.11118e-07
-1.11144e-08 1.70638e-05 -1.26556e-06
-2.89252e-08 1.69148e-05 -1.23729e-06
9.41921e-09 1.58572e-05 -1.16445e-06
3.77406e-06 -2.42217e-08 1.93156e-07
3.91722e-06 -2.27106e-08 1.46864e-07
4.05308e-06 -1.98911e-08 8.78084e-08
-9.58487e-09 1.69845e-05 -1.27239e-06
-2.13397e-08 1.68382e-05 -1.23615e-06
1.51435e-08 1.57824e-05 -1.16255e-06
3.88431e-06 -2.44114e-08 2.0543e-07
4.02437e-06 -2.24078e-08 1.53477e-07
4.15587e-06 -1.92395e-08 9.21705e-08
1.57319e-08 1.69004e-05 -1.25846e-06
2.02934e-08 1.68159e-05 -1.25223e-06
2.06846e-08 1.67281e-05 -1.25235e-06
1.18686e-08 1.6637e-05 -1.24941e-06
1.41027e-08 1.65368e-05 -1.25752e-06
-1.02779e-08 1.67605e-05 -1.23191e-06
2.36613e-08 1.57079e-05 -1.15504e-06
4.0073e-06 -2.42346e-08 2.13457e-07
4.14547e-06 -2.20117e-08 1.61144e-07
4.27373e-06 -1.85369e-08 9.94564e-08
-7.13436e-09 1.66814e-05 -1.23228e-06
2.468e-08 1.56315e-05 -1.15681e-06
4.14134e-06 -2.44845e-08 2.22405e-07
4.27852e-06 -2.21385e-08 1.6929e-07
4.40397e-06 -1.83529e-08 1.07017e-07
-5.19838e-09 1.66001e-05 -1.22967e-06
2.4363e-08 1.55536e-05 -1.15653e-06
4.43971e-06 -2.26183e-08 1.78847e-07
4.56361e-06 -1.85325e-08 1.15248e-07
4.30407e-06 -2.45421e-08 2.32794e-07
2.05812e-08 1.54754e-05 -1.15687e-06
-2.36354e-09 1.65159e-05 -1.22934e-06
4.74362e-06 -1.91557e-08 1.2416e-07
4.48009e-06 -2.56033e-08 2.45159e-07
4.6203e-06 -2.28937e-08 1.9025e-07
-4.89827e-09 1.64221e-05 -1.23195e-06
1.9761e-08 1.53866e-05 -1.16432e-06
-6.53578e-08 1.30728e-05 -8.2112e-07
-5.44413e-08 1.29523e-05 -8.25394e-07
-4.51705e-08 1.28297e-05 -8.1633e-07
-3.77564e-08 1.27032e-05 -8.07107e-07
-3.39347e-08 1.25744e-05 -7.92943e-07
-2.65006e-08 1.24392e-05 -7.79187e-07
-1.7653e-08 1.23033e-05 -7.60358e-07
-9.47226e-09 1.21763e-05 -7.36182e-07
1.38385e-09 1.20657e-05 -7.14572e-07
3.96381e-06 -1.27784e-08 -1.07043e-06
2.18362e-08 1.19658e-05 -7.05642e-07
3.92585e-06 -9.71972e-09 -1.07189e-06
3.00728e-08 1.18881e-05 -6.87161e-07
3.87121e-06 -6.96893e-09 -1.0684e-06
3.92442e-08 1.18482e-05 -6.68853e-07
3.86435e-06 -4.10069e-09 -1.07816e-06
5.28544e-08 1.18474e-05 -6.43103e-07
4.03186e-06 -3.98509e-09 -1.13584e-06
4.00412e-06 -1.68306e-08 -1.06887e-06
4.12927e-08 1.76935e-05 -8.97679e-07
3.9989e-06 -1.85386e-08 -1.05218e-06
2.15787e-08 1.77143e-05 -9.2705e-07
3.97356e-06 -1.95671e-08 -1.03051e-06
8.77341e-09 1.77605e-05 -9.45237e-07
3.90912e-06 -2.07546e-08 -9.98092e-07
3.82654e-06 -2.2484e-08 -9.61589e-07
-3.06538e-09 1.78359e-05 -9.61143e-07
3.61836e-06 -2.23068e-08 -6.11231e-07
4.38949e-06 -2.47752e-08 -5.59709e-08
4.16209e-06 -2.30948e-08 -1.87033e-07
3.92036e-06 -2.09744e-08 -3.38484e-07
-8.54463e-08 1.23562e-05 -8.29769e-07
-3.42146e-08 1.55144e-05 -1.19485e-06
-7.56306e-08 1.38264e-05 -1.0489e-06
3.80006e-06 -2.31396e-08 -6.54877e-07
3.95034e-06 -2.2263e-08 -6.93996e-07
4.07149e-06 -2.05697e-08 -7.28045e-07
4.19447e-06 -1.88056e-08 -7.6301e-07
4.2921e-06 -1.77731e-08 -7.92775e-07
4.36431e-06 -1.58116e-08 -8.19141e-07
4.65459e-06 -2.70333e-08 -6.26916e-08
4.40492e-06 -2.53317e-08 -1.99655e-07
4.13672e-06 -2.28329e-08 -3.60873e-07
-6.83704e-08 1.2242e-05 -8.17963e-07
-5.57778e-08 1.21162e-05 -8.16777e-07
-4.37406e-08 1.19881e-05 -8.14878e-07
-3.10038e-08 1.1853e-05 -8.07946e-07
-2.16054e-08 1.17094e-05 -7.97455e-07
-1.0735e-08 1.15592e-05 -7.89525e-07
-1.66377e-08 1.53925e-05 -1.17938e-06
-4.94425e-08 1.37052e-05 -1.04238e-06
4.88804e-06 -2.70072e-08 -6.66659e-08
4.61232e-06 -2.51443e-08 -2.12313e-07
4.31984e-06 -2.20541e-08 -3.81717e-07
-8.9604e-09 1.52704e-05 -1.17115e-06
-4.08175e-08 1.35852e-05 -1.02959e-06
4.77956e-06 -2.19414e-08 -2.22805e-07
5.07859e-06 -2.48936e-08 -6.82732e-08
4.46632e-06 -1.86955e-08 -3.99578e-07
-8.37082e-09 1.51405e-05 -1.17351e-06
-3.81274e-08 1.34578e-05 -1.02643e-06
5.28676e-06 -2.23338e-08 -7.32967e-08
4.95893e-06 -1.97621e-08 -2.33005e-07
4.62162e-06 -1.63756e-08 -4.13445e-07
-1.15197e-08 1.49981e-05 -1.17741e-06
-3.76675e-08 1.33192e-05 -1.0241e-06
5.46165e-06 -2.08207e-08 -7.78261e-08
5.10515e-06 -1.77477e-08 -2.43573e-07
4.74399e-06 -1.39047e-08 -4.29477e-07
-1.54921e-08 1.48469e-05 -1.17424e-06
-3.73735e-08 1.31736e-05 -1.01465e-06
5.59554e-06 -1.95934e-08 -8.36383e-08
5.21383e-06 -1.59795e-08 -2.53688e-07
4.83709e-06 -1.17977e-08 -4.40972e-07
-1.84826e-08 1.4681e-05 -1.17032e-06
-3.59191e-08 1.30164e-05 -1.00771e-06
4.68833e-06 -2.6921e-08 2.59734e-07
4.83574e-06 -2.42217e-08 2.03465e-07
4.96309e-06 -1.94718e-08 1.37783e-07
8.13009e-09 1.64288e-05 -1.26846e-06
-5.43515e-10 1.63204e-05 -1.23155e-06
2.10316e-08 1.52957e-05 -1.16492e-06
4.98727e-06 -2.89498e-08 2.79333e-07
5.14917e-06 -2.6083e-08 2.20755e-07
5.287e-06 -2.10226e-08 1.52332e-07
2.57408e-08 1.60618e-05 -1.26601e-06
2.05743e-08 1.59251e-05 -1.26677e-06
1.53623e-08 1.57696e-05 -1.2758e-06
1.01969e-08 1.56011e-05 -1.27357e-06
1.26237e-08 1.63114e-05 -1.26381e-06
2.26796e-08 1.61908e-05 -1.25957e-06
7.14474e-09 1.62098e-05 -1.22922e-06
2.8544e-08 1.51915e-05 -1.16633e-06
5.25629e-06 -2.88956e-08 2.96779e-07
5.43503e-06 -2.49167e-08 2.32645e-07
5.58838e-06 -2.02472e-08 1.66414e-07
1.15963e-08 1.61095e-05 -1.22355e-06
3.17839e-08 1.50989e-05 -1.16297e-06
5.47609e-06 -2.71426e-08 3.07087e-07
6.11248e-06 -2.35589e-08 3.29794e-07
5.72509e-06 -2.58554e-08 3.19228e-07
5.94156e-06 -2.44129e-08 3.28823e-07
5.6742e-06 -2.2907e-08 2.4666e-07
5.84065e-06 -1.70999e-08 1.781e-07
1.43117e-08 1.59947e-05 -1.22715e-06
3.23827e-08 1.4997e-05 -1.16563e-06
5.95293e-06 -2.14619e-08 2.62622e-07
6.14441e-06 -1.55097e-08 1.93481e-07
1.55922e-08 1.58667e-05 -1.22983e-06
3.12307e-08 1.48794e-05 -1.17109e-06
6.20007e-06 -2.02157e-08 2.74693e-07
6.42097e-06 -1.43956e-08 2.07248e-07
1.59429e-08 1.57212e-05 -1.23548e-06
2.9267e-08 1.47441e-05 -1.17933e-06
6.4054e-06 -1.95149e-08 2.82703e-07
6.6586e-06 -1.39733e-08 2.17257e-07
1.68844e-08 1.55574e-05 -1.23686e-06
2.72691e-08 1.45906e-05 -1.18347e-06
4.38405e-06 -1.25927e-08 -8.33643e-07
4.37146e-06 -1.09698e-08 -8.44027e-07
4.29446e-06 -8.14712e-09 -8.40081e-07
4.20831e-06 -6.89255e-09 -8.32217e-07
4.08642e-06 -4.71123e-09 -8.16541e-07
4.00918e-06 -4.31243e-09 -8.07797e-07
4.14265e-06 -4.35919e-09 -8.40704e-07
5.64046e-06 -1.80138e-08 -8.80603e-08
5.24331e-06 -1.37143e-08 -2.59454e-07
4.8598e-06 -8.9824e-09 -4.48574e-07
1.79033e-08 1.14071e-05 -7.57899e-07
2.72736e-08 1.12722e-05 -7.29539e-07
3.74664e-08 1.11535e-05 -7.02585e-07
5.86239e-08 1.106e-05 -6.81096e-07
6.61539e-08 1.1005e-05 -6.6024e-07
7.49631e-08 1.09963e-05 -6.38636e-07
5.32145e-09 1.4501e-05 -1.14711e-06
-1.2428e-08 1.28509e-05 -9.85262e-07
5.61032e-06 -1.6192e-08 -9.35861e-08
5.21102e-06 -1.12513e-08 -2.64025e-07
4.8349e-06 -5.89591e-09 -4.53034e-07
2.56743e-08 1.43307e-05 -1.12025e-06
9.12869e-09 1.27001e-05 -9.58718e-07
5.45046e-06 -7.24469e-09 -9.66861e-08
5.06891e-06 -2.31919e-09 -2.61935e-07
4.72118e-06 2.96261e-09 -4.47559e-07
3.53007e-08 1.41777e-05 -1.11025e-06
2.01798e-08 1.25729e-05 -9.50295e-07
5.22738e-06 -1.34203e-09 -9.83567e-08
4.88429e-06 3.6819e-09 -2.56626e-07
4.58139e-06 9.02283e-09 -4.39598e-07
5.18189e-08 1.40518e-05 -1.09296e-06
3.79749e-08 1.24759e-05 -9.36378e-07
4.88889e-06 1.74462e-09 -1.00096e-07
4.61243e-06 6.92529e-09 -2.48284e-07
4.38398e-06 1.22785e-08 -4.24806e-07
5.59095e-08 1.39603e-05 -1.07882e-06
4.55481e-08 1.24164e-05 -9.25924e-07
4.54259e-06 2.34537e-09 -1.02463e-07
4.35572e-06 7.7467e-09 -2.41756e-07
4.21975e-06 1.34624e-08 -4.13571e-07
5.49201e-08 1.39144e-05 -1.06622e-06
5.36672e-08 1.23999e-05 -9.09329e-07
4.46318e-06 4.96809e-10 -1.1251e-07
4.36017e-06 6.3842e-09 -2.50837e-07
4.29936e-06 1.26775e-08 -4.27313e-07
6.18857e-06 -2.11903e-08 3.30965e-07
6.51036e-06 -1.77462e-08 2.87213e-07
6.79589e-06 -1.27716e-08 2.24605e-07
2.51975e-08 1.54203e-05 -1.24373e-06
4.5365e-08 1.52354e-05 -1.21555e-06
5.3032e-08 1.50648e-05 -1.20342e-06
6.85732e-08 1.49118e-05 -1.18421e-06
7.00293e-08 1.47876e-05 -1.16732e-06
7.08205e-08 1.46998e-05 -1.1361e-06
3.12141e-08 1.53757e-05 -1.21773e-06
3.58221e-08 1.44156e-05 -1.16711e-06
6.17354e-06 -1.9578e-08 3.21342e-07
6.51847e-06 -1.66286e-08 2.84579e-07
6.83054e-06 -1.2344e-08 2.24035e-07
4.1904e-08 1.52045e-05 -1.19588e-06
4.11116e-08 1.42451e-05 -1.14926e-06
6.01222e-06 -1.38906e-08 3.209e-07
5.76396e-06 -1.15301e-08 3.13211e-07
5.3647e-06 -1.16124e-08 2.89197e-07
4.93169e-06 -1.35284e-08 2.67007e-07
4.76834e-06 -1.82379e-08 2.61385e-07
6.36412e-06 -1.04186e-08 2.85886e-07
6.69193e-06 -4.42275e-09 2.24302e-07
4.6378e-08 1.50481e-05 -1.18646e-06
4.19394e-08 1.40809e-05 -1.14243e-06
6.10315e-06 -7.01641e-09 2.79791e-07
6.43275e-06 -1.9749e-09 2.22492e-07
5.27657e-08 1.48965e-05 -1.18112e-06
4.60083e-08 1.39152e-05 -1.13561e-06
5.66904e-06 -6.2243e-09 2.62659e-07
5.97694e-06 6.60887e-10 2.03964e-07
5.52882e-08 1.47578e-05 -1.17428e-06
4.63588e-08 1.37555e-05 -1.12468e-06
5.17095e-06 -8.10282e-09 2.38867e-07
5.4326e-06 -1.07892e-09 1.81856e-07
6.61823e-08 1.46325e-05 -1.12442e-06
4.69586e-08 1.36142e-05 -1.10689e-06
4.92583e-06 -1.24939e-08 2.25928e-07
5.11967e-06 -5.99193e-09 1.68208e-07
3.4351e-06 -1.40043e-08 2.50995e-08
8.06183e-09 1.29252e-05 -9.18383e-07
2.73014e-08 1.46342e-05 -1.01484e-06
3.15023e-08 1.45631e-05 -1.02119e-06
3.60384e-08 1.44922e-05 -1.02621e-06
3.90003e-08 1.44208e-05 -1.03346e-06
4.05308e-08 1.43489e-05 -1.04169e-06
3.63467e-06 -1.58919e-08 2.4717e-08
1.08331e-08 1.28623e-05 -9.2789e-07
3.73666e-06 -1.75698e-08 1.88742e-08
3.82239e-06 -1.42293e-08 4.7484e-08
1.27132e-08 1.28041e-05 -9.39144e-07
3.82834e-06 -1.81718e-08 2.40154e-08
3.91748e-06 -1.85534e-08 2.78593e-08
4.00861e-06 -1.90031e-08 3.34585e-08
4.09554e-06 -1.92669e-08 3.76232e-08
3.9194e-06 -1.45942e-08 4.89826e-08
1.61652e-08 1.27458e-05 -9.45022e-07
4.01527e-06 -1.50571e-08 5.07141e-08
1.91385e-08 1.26851e-05 -9.51272e-07
2.17532e-08 1.2622e-05 -9.56577e-07
4.20373e-06 -1.61598e-08 5.64996e-08
4.31111e-06 -1.34483e-08 2.74149e-08
2.73739e-08 1.09484e-05 -8.22468e-07
2.94431e-08 9.4762e-06 -7.05154e-07
4.1121e-06 -1.55624e-08 5.4108e-08
4.21988e-06 -1.32156e-08 2.50816e-08
2.53824e-08 1.10069e-05 -8.19353e-07
2.79296e-08 9.53021e-06 -7.03843e-07
4.12137e-06 -1.30244e-08 2.32324e-08
2.3106e-08 1.10631e-05 -8.15452e-07
2.61599e-08 9.5819e-06 -7.01887e-07
4.02393e-06 -1.28989e-08 2.1507e-08
2.0302e-08 1.11168e-05 -8.11863e-07
2.38861e-08 9.63118e-06 -7.00125e-07
3.92466e-06 -1.28526e-08 1.99234e-08
1.82401e-08 1.11704e-05 -8.05151e-07
2.1804e-08 9.67998e-06 -6.96967e-07
3.71985e-06 -1.29833e-08 4.556e-08
3.82005e-06 -1.18513e-08 1.74085e-08
2.39444e-08 1.47061e-05 -1.01009e-06
1.51032e-08 1.12275e-05 -7.99662e-07
1.87366e-08 9.73151e-06 -6.9486e-07
3.51907e-06 -1.16775e-08 4.22723e-08
3.61591e-06 -1.0818e-08 1.5645e-08
1.47643e-08 8.44992e-06 -6.10487e-07
4.01275e-06 -6.59741e-09 2.88198e-08
1.68394e-08 8.40448e-06 -6.12065e-07
4.1258e-06 -7.55356e-09 2.98934e-08
4.19975e-06 -6.55121e-09 9.06518e-09
4.41303e-06 -1.06258e-08 -2.8461e-09
4.32201e-06 -1.07832e-08 -5.39083e-09
4.22226e-06 -1.09549e-08 -7.33866e-09
4.12327e-06 -1.11635e-08 -9.23331e-09
1.82146e-08 8.36118e-06 -6.15129e-07
1.57589e-08 7.2642e-06 -5.32368e-07
4.23366e-06 -7.59169e-09 3.01422e-08
4.31053e-06 -6.33867e-09 9.07627e-09
2.01679e-08 8.31702e-06 -6.16316e-07
1.70653e-08 7.22473e-06 -5.32659e-07
4.33871e-06 -7.71317e-09 3.06699e-08
2.17318e-08 8.27055e-06 -6.1768e-07
1.80211e-08 7.18306e-06 -5.33016e-07
4.44457e-06 -7.90224e-09 3.13212e-08
2.29463e-08 8.22167e-06 -6.18771e-07
1.86869e-08 7.13906e-06 -5.33037e-07
4.54055e-06 -8.12782e-09 3.24145e-08
4.62322e-06 -5.89402e-09 1.10814e-08
1.5687e-08 6.16943e-06 -4.58724e-07
4.52568e-06 -6.02188e-09 1.01435e-08
1.54862e-08 6.20825e-06 -4.59346e-07
4.41722e-06 -6.16438e-09 9.69554e-09
1.50475e-08 6.24486e-06 -4.59668e-07
1.42789e-08 6.27941e-06 -4.59999e-07
4.02179e-06 -1.14291e-08 -1.09897e-08
1.57221e-08 7.30151e-06 -5.32125e-07
1.35476e-08 6.31318e-06 -4.59892e-07
3.91206e-06 -1.00711e-08 -9.54241e-09
4.08338e-06 -5.88906e-09 8.79557e-09
1.40544e-08 7.34169e-06 -5.3203e-07
1.22916e-08 6.34816e-06 -4.61013e-07
3.70307e-06 -8.74473e-09 -7.18093e-09
3.79951e-06 -5.7881e-09 2.79762e-08
3.86872e-06 -5.3135e-09 8.89126e-09
4.16076e-08 1.42767e-05 -1.04885e-06
2.46705e-08 1.25571e-05 -9.59081e-07
2.92199e-08 1.08881e-05 -8.24107e-07
3.05047e-08 9.42043e-06 -7.05828e-07
4.42929e-08 1.42049e-05 -1.05041e-06
5.10853e-08 1.41343e-05 -1.04029e-06
4.92902e-08 1.40646e-05 -1.04121e-06
4.81326e-08 1.39917e-05 -1.04235e-06
4.51505e-08 1.39163e-05 -1.04557e-06
4.04188e-08 1.38366e-05 -1.05123e-06
4.18978e-06 -1.94729e-08 4.38298e-08
4.30243e-06 -1.68153e-08 5.7937e-08
4.40812e-06 -1.36832e-08 2.98835e-08
2.79819e-08 1.24909e-05 -9.57723e-07
2.95971e-08 1.08277e-05 -8.20938e-07
3.11594e-08 9.36307e-06 -7.04982e-07
4.28805e-06 -1.91056e-08 5.04646e-08
4.40387e-06 -1.73349e-08 6.14145e-08
4.50704e-06 -1.38439e-08 3.24968e-08
4.40151e-06 -1.85924e-08 5.87047e-08
4.52746e-06 -1.83967e-08 6.8535e-08
4.68321e-06 -1.82792e-08 7.83702e-08
4.86143e-06 -1.8659e-08 8.66271e-08
3.03852e-08 1.24267e-05 -9.47759e-07
3.15067e-08 1.07663e-05 -8.14369e-07
3.03964e-08 9.30736e-06 -6.97668e-07
4.51899e-06 -1.75004e-08 6.57725e-08
4.61853e-06 -1.37133e-08 3.68737e-08
3.26814e-08 1.23587e-05 -9.47447e-07
3.23319e-08 1.07032e-05 -8.14533e-07
3.01481e-08 9.24894e-06 -6.98215e-07
4.64627e-06 -1.78965e-08 7.03357e-08
4.74147e-06 -1.37865e-08 4.13193e-08
3.49001e-08 1.22905e-05 -9.45044e-07
3.30337e-08 1.06402e-05 -8.13126e-07
2.97355e-08 9.19072e-06 -6.97756e-07
4.80468e-06 -1.82278e-08 7.42164e-08
4.89475e-06 -1.40954e-08 4.58244e-08
2.8852e-08 9.13189e-06 -6.99177e-07
3.86888e-08 1.22195e-05 -9.47076e-07
3.49467e-08 1.05752e-05 -8.15408e-07
4.98766e-06 -1.91272e-08 8.16343e-08
5.0738e-06 -1.42596e-08 5.26455e-08
3.94268e-08 1.21455e-05 -9.5014e-07
3.32055e-08 1.0511e-05 -8.16806e-07
2.76644e-08 9.07272e-06 -7.01845e-07
2.44035e-08 8.17091e-06 -6.18317e-07
1.9487e-08 7.09312e-06 -5.31972e-07
1.5297e-08 6.12935e-06 -4.56009e-07
4.50915e-06 -1.03445e-08 -5.67264e-10
4.64148e-06 -8.26276e-09 3.40429e-08
4.72629e-06 -5.82066e-09 1.1825e-08
2.52935e-08 8.12026e-06 -6.12217e-07
2.04936e-08 7.04566e-06 -5.29146e-07
1.57246e-08 6.08691e-06 -4.53162e-07
4.6055e-06 -9.97361e-09 2.58291e-09
4.74092e-06 -8.26146e-09 3.54734e-08
4.82447e-06 -5.64388e-09 1.37914e-08
4.71368e-06 -9.50228e-09 7.08453e-09
4.83241e-06 -9.28841e-09 1.18155e-08
4.9809e-06 -9.2781e-09 1.64854e-08
5.15471e-06 -9.07917e-09 2.42411e-08
2.70668e-08 8.06805e-06 -6.07999e-07
2.14329e-08 6.99793e-06 -5.24097e-07
1.60263e-08 6.04399e-06 -4.4874e-07
4.85171e-06 -7.9384e-09 3.92512e-08
4.93427e-06 -5.17433e-09 1.73412e-08
2.77383e-08 8.01447e-06 -6.08101e-07
2.14584e-08 6.94869e-06 -5.24062e-07
1.55976e-08 5.99945e-06 -4.48664e-07
4.97235e-06 -7.82761e-09 4.30229e-08
5.05293e-06 -4.86995e-09 2.11355e-08
2.82224e-08 7.961e-06 -6.07094e-07
2.07354e-08 6.90082e-06 -5.21613e-07
1.50051e-08 5.95457e-06 -4.48462e-07
5.12247e-06 -7.73649e-09 4.71371e-08
5.20108e-06 -4.30903e-09 2.539e-08
2.82294e-08 7.90742e-06 -6.0804e-07
2.02045e-08 6.85138e-06 -5.22672e-07
1.36898e-08 5.91069e-06 -4.47939e-07
5.29831e-06 -7.6455e-09 5.14501e-08
5.37378e-06 -3.99873e-09 2.9574e-08
1.24171e-08 5.86482e-06 -4.50948e-07
2.8615e-08 7.85393e-06 -6.0907e-07
2.03445e-08 6.80023e-06 -5.25884e-07
7.29042e-09 5.41963e-06 -3.94534e-07
4.26455e-06 -6.23826e-09 -1.09882e-08