# vtk DataFile Version 3.0
vtk output
ASCII
DATASET POLYDATA
POINTS 17271 float
0.173887 0.864738 -0.0493529
0.163274 0.86982 -0.0491403
0.173999 0.854749 -0.0487887
0.163401 0.859831 -0.0486178
0.174101 0.844761 -0.0482047
0.163533 0.849844 -0.04803
0.152836 0.86492 -0.048186
0.174219 0.834772 -0.0476034
0.163645 0.839853 -0.0475326
0.152975 0.854931 -0.0476702
0.142267 0.870011 -0.0474752
0.174322 0.824788 -0.0469879
0.163751 0.829864 -0.0469929
0.15311 0.844942 -0.0471466
0.142428 0.860018 -0.047009
0.153251 0.834954 -0.0465835
0.142581 0.850029 -0.0464658
0.174424 0.814799 -0.0463811
0.163871 0.819879 -0.0464237
0.13196 0.865107 -0.0460574
0.17455 0.804808 -0.0457369
0.163966 0.809892 -0.0458869
0.153392 0.824969 -0.0460401
0.142727 0.840039 -0.0459874
0.195429 0.814623 -0.0466047
0.184878 0.809718 -0.0464461
0.205982 0.809555 -0.0461387
0.216384 0.814481 -0.0462316
0.185061 0.799726 -0.0457355
0.195575 0.804642 -0.0459484
0.226819 0.809421 -0.0457201
0.23709 0.814349 -0.0459644
0.257592 0.814218 -0.0459894
0.277996 0.814107 -0.0459473
0.184691 0.819699 -0.0471261
0.195279 0.824614 -0.0472869
0.205879 0.819541 -0.0467434
0.216291 0.824468 -0.0468617
0.184559 0.829685 -0.0478442
0.205751 0.82952 -0.0474056
0.226661 0.829386 -0.0469887
0.184164 0.869646 -0.050353
0.184247 0.859653 -0.0498001
0.18434 0.849668 -0.0491584
0.184452 0.839677 -0.0485032
0.194673 0.864554 -0.0499381
0.205248 0.869462 -0.0500419
0.205361 0.859472 -0.0493983
0.215889 0.864396 -0.0494638
0.226334 0.869323 -0.0495726
0.194785 0.85457 -0.0493075
0.226407 0.859334 -0.0489488
0.194923 0.844579 -0.048639
0.20551 0.849492 -0.0487128
0.215994 0.854414 -0.0488306
0.216086 0.844428 -0.0481712
0.226497 0.849356 -0.0483021
0.19509 0.834596 -0.0479764
0.205646 0.83951 -0.04804
0.21619 0.834448 -0.0475078
0.226584 0.839376 -0.0476247
0.226745 0.819407 -0.0463358
0.237008 0.824332 -0.0465903
0.257535 0.824201 -0.046603
0.277956 0.824091 -0.0465521
0.247255 0.829251 -0.0469283
0.247039 0.869186 -0.0494859
0.267593 0.869067 -0.0493183
0.27783 0.864019 -0.0490179
0.23674 0.864263 -0.0492061
0.257337 0.864132 -0.0491141
0.236806 0.854277 -0.0485629
0.247085 0.859202 -0.0488447
0.267621 0.859082 -0.0486931
0.247146 0.84922 -0.048187
0.257386 0.85415 -0.0484647
0.277853 0.854038 -0.0483967
0.236868 0.844297 -0.0478967
0.257437 0.844165 -0.0478395
0.277889 0.844055 -0.0477755
0.267656 0.849104 -0.0480648
0.247203 0.83924 -0.0475433
0.267702 0.839118 -0.0474549
0.236929 0.834315 -0.0472476
0.25748 0.834183 -0.0472231
0.277916 0.834072 -0.0471732
0.267736 0.829132 -0.046867
0.247327 0.819277 -0.0462445
0.26779 0.819153 -0.0462282
0.298259 0.814023 -0.0462496
0.318623 0.813949 -0.0463382
0.33884 0.813884 -0.0463763
0.288144 0.809067 -0.0457252
0.338872 0.803907 -0.0457213
0.308466 0.809011 -0.0459302
0.328754 0.808936 -0.0460503
0.379241 0.813756 -0.0466108
0.359033 0.813817 -0.0463293
0.379244 0.803787 -0.0459306
0.348966 0.808865 -0.045911
0.369128 0.808806 -0.0461307
0.389312 0.808764 -0.0461268
0.308391 0.818982 -0.04659
0.328708 0.818904 -0.0467069
0.288071 0.819044 -0.0463527
0.288032 0.82902 -0.0469853
0.287947 0.868956 -0.0494069
0.287958 0.858971 -0.0487916
0.287983 0.84899 -0.0481809
0.288006 0.839008 -0.0475721
0.318553 0.823921 -0.0470025
0.33879 0.823857 -0.0470506
0.298182 0.824008 -0.0468693
0.328475 0.868786 -0.049967
0.31834 0.863845 -0.0496182
0.338641 0.863768 -0.0496496
0.308075 0.868879 -0.0497285
0.297895 0.863911 -0.049302
0.308121 0.858894 -0.0490939
0.328523 0.858811 -0.0493084
0.297949 0.853931 -0.0487082
0.318401 0.853868 -0.0489482
0.338683 0.853795 -0.0489828
0.318443 0.843886 -0.0482829
0.338717 0.843813 -0.0483227
0.308195 0.848924 -0.0484434
0.328573 0.848839 -0.0486328
0.298035 0.84396 -0.048082
0.308249 0.83894 -0.047822
0.328611 0.838858 -0.0479953
0.298096 0.833978 -0.0474767
0.318507 0.833908 -0.0476295
0.338759 0.833839 -0.0476736
0.308327 0.82896 -0.0472266
0.328661 0.828881 -0.0473736
0.369105 0.818776 -0.0467863
0.389312 0.818735 -0.0467828
0.34894 0.818842 -0.0465531
0.379222 0.823736 -0.0472554
0.359002 0.823796 -0.0469721
0.369015 0.868663 -0.0499694
0.389303 0.868621 -0.0500319
0.379198 0.863649 -0.0498219
0.348787 0.868732 -0.0498854
0.379205 0.853668 -0.0491738
0.348811 0.858748 -0.0492261
0.358921 0.863709 -0.0495055
0.369029 0.858687 -0.0493207
0.3893 0.858645 -0.0493746
0.389306 0.848665 -0.048721
0.358938 0.853727 -0.0488716
0.379206 0.843693 -0.048512
0.348841 0.848774 -0.0485437
0.369045 0.848713 -0.0486698
0.379216 0.833711 -0.0478826
0.348868 0.838791 -0.0478931
0.369064 0.838731 -0.0480472
0.389303 0.838689 -0.0480717
0.358958 0.843754 -0.0482165
0.369079 0.828747 -0.0474425
0.389309 0.828706 -0.0474569
0.358978 0.833772 -0.047595
0.348897 0.828814 -0.0472494
0.41955 0.813694 -0.0466636
0.439667 0.813679 -0.0466104
0.409471 0.808724 -0.0462441
0.429615 0.808701 -0.0462818
0.399387 0.813731 -0.0464785
0.399406 0.803756 -0.0458288
0.419556 0.803725 -0.0460056
0.439655 0.803711 -0.0459513
0.459767 0.813664 -0.046648
0.499946 0.81367 -0.0466061
0.449708 0.808688 -0.0462382
0.469804 0.808678 -0.0462515
0.489885 0.808681 -0.0462285
0.47984 0.813672 -0.0465398
0.459746 0.803696 -0.0459942
0.479828 0.803696 -0.045894
0.409462 0.818704 -0.0468633
0.429609 0.81868 -0.0469187
0.399345 0.823702 -0.0471327
0.419539 0.823672 -0.047312
0.439666 0.823658 -0.0472667
0.419535 0.833645 -0.0479541
0.439676 0.833631 -0.0479182
0.399327 0.833682 -0.0477591
0.409442 0.828673 -0.0475344
0.429608 0.828649 -0.0475905
0.409434 0.838656 -0.0481506
0.429606 0.838632 -0.0482174
0.399296 0.843656 -0.0484083
0.419527 0.843627 -0.0485932
0.439675 0.843612 -0.0485659
0.409418 0.848631 -0.048791
0.429606 0.848607 -0.0488621
0.4094 0.868585 -0.0500942
0.429611 0.868561 -0.0501624
0.399253 0.86361 -0.0497084
0.419518 0.863581 -0.0498757
0.439685 0.863566 -0.049859
0.419518 0.853602 -0.0492341
0.439682 0.853586 -0.0492139
0.409411 0.85861 -0.049439
0.429606 0.858586 -0.049509
0.399277 0.853637 -0.0490499
0.449706 0.818668 -0.0468725
0.469812 0.818659 -0.0468843
0.489902 0.818662 -0.0468605
0.459769 0.823643 -0.0472962
0.479874 0.823644 -0.0471981
0.459788 0.833617 -0.0479399
0.500013 0.833624 -0.0478893
0.449714 0.828637 -0.0475456
0.469837 0.828628 -0.0475494
0.489945 0.828631 -0.0475262
0.479886 0.833625 -0.0478315
0.449717 0.838619 -0.0481804
0.469845 0.838611 -0.0481757
0.489958 0.838615 -0.0481482
0.459792 0.843599 -0.0485763
0.479919 0.8436 -0.0484771
0.449728 0.848594 -0.0488315
0.469871 0.848587 -0.0488144
0.489997 0.848591 -0.0487865
0.449751 0.868548 -0.0501412
0.469909 0.868542 -0.0501066
0.490049 0.868546 -0.0500801
0.459822 0.863554 -0.0498488
0.479964 0.863555 -0.0497554
0.459812 0.853574 -0.0492112
0.479952 0.853575 -0.0491136
0.449733 0.858573 -0.0494838
0.46988 0.858566 -0.0494577
0.490011 0.85857 -0.0494317
0.500007 0.863562 -0.0498017
0.500006 0.853582 -0.0491457
0.540232 0.813665 -0.0466509
0.510114 0.808681 -0.0462314
0.530196 0.808679 -0.0462537
0.550292 0.808688 -0.0462394
0.520159 0.813672 -0.0465433
0.500104 0.803699 -0.0459526
0.520172 0.803696 -0.0458951
0.540253 0.803696 -0.0459946
0.560332 0.81368 -0.0466116
0.580449 0.813694 -0.0466634
0.570385 0.808701 -0.0462814
0.590528 0.808724 -0.0462428
0.600613 0.813731 -0.0464777
0.560345 0.803711 -0.0459502
0.580443 0.803726 -0.0460033
0.600594 0.803756 -0.0458268
0.49999 0.843606 -0.048523
0.510097 0.818662 -0.0468652
0.530188 0.818659 -0.0468882
0.550294 0.818668 -0.046875
0.500035 0.823649 -0.0472568
0.520125 0.823644 -0.0472
0.54023 0.823643 -0.0472974
0.540212 0.833617 -0.0479398
0.510055 0.828632 -0.0475292
0.530162 0.828628 -0.0475519
0.550286 0.828637 -0.0475464
0.520114 0.833625 -0.0478317
0.510042 0.838615 -0.0481449
0.530154 0.838612 -0.0481728
0.550283 0.83862 -0.0481753
0.520079 0.843601 -0.048466
0.540207 0.8436 -0.048565
0.50995 0.868547 -0.050073
0.530089 0.868542 -0.0501011
0.550247 0.868549 -0.0501328
0.520034 0.863556 -0.0497492
0.540175 0.863554 -0.0498436
0.520046 0.853575 -0.0491046
0.540185 0.853574 -0.0492029
0.509987 0.85857 -0.0494219
0.530117 0.858566 -0.0494497
0.550264 0.858573 -0.0494726
0.510001 0.848592 -0.0487745
0.530128 0.848588 -0.0488032
0.550271 0.848595 -0.0488171
0.57039 0.818681 -0.0469192
0.590538 0.818704 -0.0468622
0.560333 0.823658 -0.0472659
0.58046 0.823672 -0.0473099
0.600655 0.823702 -0.0471318
0.560323 0.833631 -0.0479161
0.580465 0.833646 -0.0479512
0.570392 0.82865 -0.0475899
0.590557 0.828673 -0.0475341
0.600673 0.833683 -0.0477578
0.570393 0.838632 -0.0482124
0.590566 0.838656 -0.048147
0.560326 0.843613 -0.0485546
0.580475 0.843628 -0.0485804
0.600705 0.843657 -0.0483945
0.57039 0.868562 -0.0501558
0.5906 0.868585 -0.0500858
0.560316 0.863567 -0.0498549
0.580482 0.863582 -0.0498685
0.600747 0.863611 -0.049699
0.560318 0.853587 -0.049205
0.580482 0.853602 -0.049225
0.570395 0.858586 -0.049501
0.590588 0.85861 -0.0494296
0.570395 0.848608 -0.0488504
0.590583 0.848632 -0.0487778
0.600721 0.853637 -0.0490393
0.620759 0.813756 -0.0466102
0.640966 0.813817 -0.046327
0.620755 0.803787 -0.0459292
0.610688 0.808764 -0.046126
0.630872 0.808806 -0.0461278
0.651034 0.808866 -0.0459084
0.661159 0.813885 -0.0463748
0.681377 0.81395 -0.0463374
0.701741 0.814024 -0.0462493
0.661127 0.803907 -0.0457186
0.671245 0.808937 -0.0460488
0.691533 0.809011 -0.0459296
0.711857 0.809068 -0.0457265
0.610688 0.818735 -0.0467821
0.630894 0.818776 -0.0467843
0.65106 0.818842 -0.046551
0.620777 0.823736 -0.0472547
0.640998 0.823796 -0.0469703
0.610697 0.868621 -0.0500318
0.630985 0.868663 -0.0499677
0.620803 0.863649 -0.0498218
0.651212 0.868732 -0.0498839
0.620795 0.853668 -0.0491718
0.610699 0.858645 -0.0493727
0.630971 0.858687 -0.0493184
0.641078 0.863709 -0.0495038
0.651189 0.858748 -0.0492239
0.610693 0.848665 -0.0487186
0.641061 0.853727 -0.0488693
0.620793 0.843694 -0.0485095
0.630955 0.848713 -0.0486673
0.651159 0.848775 -0.0485413
0.620783 0.833711 -0.0478816
0.610696 0.838689 -0.0480691
0.630935 0.838731 -0.0480446
[...]
POINT_DATA 17271
VECTORS alpha float
-2.52832e-07 1.92233e-05 -1.31222e-06
1.43204e-06 -1.02171e-08 3.08468e-08
-2.26462e-07 1.92545e-05 -1.30179e-06
1.39848e-06 -9.84418e-09 3.75642e-08
-2.11655e-07 1.9287e-05 -1.3046e-06
1.37671e-06 -9.52591e-09 4.06048e-08
-2.81766e-07 1.82481e-05 -1.23112e-06
-2.02309e-07 1.9318e-05 -1.30001e-06
1.34224e-06 -9.16558e-09 4.40512e-08
-2.62679e-07 1.82787e-05 -1.22357e-06
1.36024e-06 -9.64681e-09 -3.09589e-08
-1.96501e-07 1.93479e-05 -1.31178e-06
1.30998e-06 -8.86007e-09 4.83656e-08
-2.59452e-07 1.83107e-05 -1.25413e-06
1.32934e-06 -9.2666e-09 -2.16943e-08
-2.55696e-07 1.83399e-05 -1.26391e-06
1.30842e-06 -8.94819e-09 -1.65557e-08
-2.03732e-07 1.93768e-05 -1.33207e-06
1.26734e-06 -8.49235e-09 5.0781e-08
-2.66192e-07 1.64095e-05 -1.08426e-06
-2.08981e-07 1.94057e-05 -1.33188e-06
1.24264e-06 -8.20284e-09 5.491e-08
-2.51013e-07 1.83689e-05 -1.23483e-06
1.27615e-06 -8.57955e-09 -8.44773e-09
-1.81648e-07 1.91935e-05 -1.3471e-06
1.29652e-06 -8.61986e-09 8.24367e-08
1.33154e-06 -8.24279e-09 7.03499e-08
-1.23203e-07 1.80319e-05 -1.23078e-06
1.26462e-06 -8.2682e-09 7.96137e-08
-1.87862e-07 1.92198e-05 -1.34586e-06
1.36527e-06 -7.6237e-09 4.94171e-08
-7.07814e-08 1.62969e-05 -1.10116e-06
-6.01009e-08 1.43769e-05 -9.88365e-07
-3.21381e-08 1.25417e-05 -8.53069e-07
1.32704e-06 -8.9174e-09 8.53311e-08
-1.72277e-07 1.91648e-05 -1.34259e-06
1.36081e-06 -8.54792e-09 7.2147e-08
-1.1726e-07 1.80048e-05 -1.235e-06
1.37341e-06 -9.35439e-09 8.91733e-08
1.40848e-06 -8.95117e-09 7.53651e-08
1.44178e-06 -8.20243e-09 5.1988e-08
1.50584e-06 -1.09138e-08 8.8492e-08
1.47031e-06 -1.04889e-08 9.05463e-08
1.44674e-06 -1.0144e-08 9.20475e-08
1.4089e-06 -9.71491e-09 9.04152e-08
-1.48208e-07 1.9039e-05 -1.30516e-06
1.54888e-06 -1.04108e-08 7.99017e-08
1.51075e-06 -9.98896e-09 7.88517e-08
-1.18569e-07 1.78895e-05 -1.24795e-06
1.58177e-06 -9.44444e-09 5.3974e-08
-1.40292e-07 1.90698e-05 -1.31315e-06
1.54385e-06 -9.07377e-09 5.351e-08
-1.45731e-07 1.9103e-05 -1.32606e-06
1.48452e-06 -9.64865e-09 7.82856e-08
-1.13578e-07 1.79183e-05 -1.25327e-06
-1.1328e-07 1.79484e-05 -1.24506e-06
1.51818e-06 -8.80034e-09 5.30378e-08
-1.52947e-07 1.91337e-05 -1.32334e-06
1.44464e-06 -9.29249e-09 7.67818e-08
-1.13483e-07 1.79764e-05 -1.23839e-06
1.47839e-06 -8.50743e-09 5.19543e-08
1.39418e-06 -7.87403e-09 4.96696e-08
-6.59914e-08 1.6274e-05 -1.10262e-06
-5.78264e-08 1.43555e-05 -9.90838e-07
-2.96472e-08 1.25226e-05 -8.46069e-07
1.48178e-06 -7.53565e-09 3.82597e-08
1.62319e-06 -8.56511e-09 3.85236e-08
1.66244e-06 -7.75586e-09 3.05135e-08
-2.91655e-08 1.2435e-05 -8.3381e-07
-7.01903e-08 1.61678e-05 -1.0946e-06
-5.90633e-08 1.42592e-05 -9.77526e-07
-6.31809e-08 1.61956e-05 -1.10327e-06
1.58429e-06 -8.31332e-09 3.86915e-08
1.62344e-06 -7.4898e-09 3.01573e-08
1.55958e-06 -8.05568e-09 3.8314e-08
-5.61387e-08 1.42828e-05 -9.84709e-07
-2.88766e-08 1.24572e-05 -8.36538e-07
-6.11835e-08 1.62223e-05 -1.10238e-06
-5.47118e-08 1.4308e-05 -9.82232e-07
-2.68649e-08 1.24799e-05 -8.34546e-07
1.59817e-06 -7.23509e-09 2.97823e-08
1.51946e-06 -7.82626e-09 3.79217e-08
1.55773e-06 -6.90148e-09 2.95813e-08
-6.19232e-08 1.62475e-05 -1.10219e-06
-5.3902e-08 1.43312e-05 -9.83521e-07
-2.60453e-08 1.25009e-05 -8.36859e-07
1.51928e-06 -6.66994e-09 3.01474e-08
1.43267e-06 -7.24678e-09 3.55507e-08
1.46918e-06 -6.32898e-09 2.91722e-08
-1.03623e-08 1.09148e-05 -7.41621e-07
-1.22332e-08 9.51504e-06 -6.6505e-07
-9.63885e-09 8.29156e-06 -5.85505e-07
1.4737e-06 -5.16089e-09 2.33161e-08
-1.11244e-08 8.30561e-06 -5.85339e-07
1.50111e-06 -4.14816e-09 2.18618e-08
1.53012e-06 -3.79642e-09 2.41714e-08
-1.13412e-08 6.13681e-06 -4.28184e-07
-5.60865e-09 7.18463e-06 -4.99552e-07
-1.19402e-08 6.14717e-06 -4.28487e-07
1.55201e-06 -3.44269e-09 1.79205e-08
1.57431e-06 -2.70201e-09 1.86126e-08
1.59584e-06 -2.43434e-09 1.46573e-08
1.53352e-06 -4.21585e-09 2.09346e-08
1.56357e-06 -3.89468e-09 2.42908e-08
1.50517e-06 -5.36408e-09 2.26179e-08
1.55616e-06 -5.54577e-09 2.37081e-08
1.70061e-06 -6.48081e-09 2.45206e-08
1.66163e-06 -6.26565e-09 2.42575e-08
1.63619e-06 -5.98958e-09 2.40188e-08
1.59534e-06 -5.78836e-09 2.31137e-08
-8.89239e-09 9.49909e-06 -6.62912e-07
-7.96564e-09 8.27728e-06 -5.83693e-07
-6.12727e-09 1.08969e-05 -7.40863e-07
1.77165e-06 -4.85492e-09 2.19351e-08
-5.58053e-09 9.42879e-06 -6.49725e-07
-4.60697e-09 8.21659e-06 -5.77341e-07
1.7358e-06 -5.22809e-09 1.44696e-08
4.11345e-10 1.08182e-05 -7.17604e-07
1.6956e-06 -5.0052e-09 1.55944e-08
1.72962e-06 -4.65098e-09 2.26944e-08
-2.02517e-09 1.08387e-05 -7.19725e-07
-7.67185e-09 9.44677e-06 -6.53708e-07
-6.25326e-09 8.23215e-06 -5.76662e-07
-8.1393e-09 9.46509e-06 -6.562e-07
-6.61959e-09 8.24827e-06 -5.78416e-07
1.66896e-06 -4.83323e-09 1.68089e-08
1.70263e-06 -4.52034e-09 2.3249e-08
-2.72627e-09 1.08585e-05 -7.23328e-07
1.627e-06 -4.63885e-09 1.7644e-08
1.65972e-06 -4.31693e-09 2.36731e-08
-3.61645e-09 1.0878e-05 -7.29651e-07
-8.52378e-09 9.48211e-06 -6.59555e-07
-7.21552e-09 8.26279e-06 -5.8111e-07
1.58605e-06 -4.42271e-09 2.0435e-08
1.61749e-06 -4.08845e-09 2.48715e-08
1.60858e-06 -2.71429e-09 1.83345e-08
1.63087e-06 -2.44397e-09 1.50791e-08
1.58512e-06 -3.5513e-09 1.74264e-08
-1.00482e-08 6.12575e-06 -4.28786e-07
-3.60743e-09 7.17171e-06 -5.01851e-07
1.82037e-06 -3.22434e-09 1.57241e-08
1.84625e-06 -2.84842e-09 1.76893e-08
-9.98124e-09 6.07949e-06 -4.24696e-07
1.79518e-06 -4.18504e-09 1.73407e-08
-1.01071e-08 6.09167e-06 -4.23972e-07
1.75363e-06 -4.00932e-09 1.74583e-08
-9.348e-10 7.11797e-06 -5.06905e-07
1.77783e-06 -3.152e-09 1.5997e-08
1.80319e-06 -2.80278e-09 1.70636e-08
1.77675e-06 -2.68948e-09 1.68167e-08
-1.94563e-09 7.13216e-06 -5.02574e-07
-1.01444e-08 6.10356e-06 -4.25694e-07
1.72666e-06 -3.91706e-09 1.75836e-08
1.75106e-06 -3.07665e-09 1.65331e-08
-9.57187e-09 6.11494e-06 -4.2634e-07
1.68322e-06 -3.75899e-09 1.77154e-08
1.70718e-06 -2.92595e-09 1.72882e-08
1.73151e-06 -2.62051e-09 1.6058e-08
-2.81147e-09 7.14588e-06 -5.02422e-07
1.66477e-06 -2.79307e-09 1.83152e-08
1.68821e-06 -2.50317e-09 1.61565e-08
-2.84664e-09 7.15917e-06 -5.00665e-07
1.64061e-06 -3.64118e-09 1.83297e-08
-1.00774e-10 4.09266e-06 -2.91217e-07
-1.99589e-09 3.07069e-06 -2.19671e-07
1.60985e-06 -1.28578e-09 1.18691e-08
1.62455e-06 -9.37756e-10 1.32363e-08
-2.70459e-09 5.11225e-06 -3.60137e-07
-3.08829e-09 5.1212e-06 -3.59598e-07
-9.26321e-10 4.09959e-06 -2.92345e-07
-2.26101e-09 3.07593e-06 -2.2059e-07
-7.96565e-10 2.04717e-06 -1.46019e-07
3.12532e-15 -5.61786e-12 4.03947e-13
1.63439e-06 -6.30987e-10 7.81338e-09
1.64103e-06 4.80078e-11 8.26994e-09
1.64358e-06 3.54043e-10 -4.52702e-09
-2.05872e-10 1.02335e-06 -7.33333e-08
-1.03488e-09 2.0507e-06 -1.4633e-07
-2.28222e-10 1.02516e-06 -7.34518e-08
1.64508e-06 -1.34686e-09 1.1405e-08
1.66008e-06 -9.60549e-10 1.30483e-08
-1.77475e-09 5.10311e-06 -3.60073e-07
3.43576e-10 4.08522e-06 -2.89704e-07
-1.8394e-09 3.06508e-06 -2.18472e-07
7.17735e-10 4.07775e-06 -2.89204e-07
-1.82705e-09 3.05945e-06 -2.18065e-07
-1.9684e-09 5.09362e-06 -3.60982e-07
1.7033e-06 -1.43299e-09 1.16499e-08
1.71889e-06 -1.01173e-09 1.33679e-08
1.74716e-06 -1.53381e-09 1.11708e-08
1.76307e-06 -1.05738e-09 1.30152e-08
-1.82477e-09 5.08411e-06 -3.60567e-07
1.07346e-09 4.06992e-06 -2.89065e-07
-1.83491e-09 3.05354e-06 -2.1812e-07
1.79336e-06 -1.63484e-09 1.07828e-08
1.80967e-06 -1.08786e-09 1.30275e-08
1.86378e-06 -1.82967e-09 9.95592e-09
1.88045e-06 -1.16572e-09 1.29617e-08
-8.66653e-10 5.06367e-06 -3.60972e-07
2.1595e-09 4.0535e-06 -2.8749e-07
-1.31426e-09 3.04119e-06 -2.16975e-07
1.68969e-09 4.06177e-06 -2.86957e-07
-1.55881e-09 3.04741e-06 -2.16573e-07
1.81986e-06 -1.71533e-09 1.01628e-08
1.83619e-06 -1.12946e-09 1.28225e-08
-1.33892e-09 5.07368e-06 -3.59877e-07
1.67017e-06 -6.32827e-10 8.0422e-09
1.67703e-06 6.45619e-11 8.36933e-09
1.67965e-06 4.11152e-10 -4.40645e-09
-6.57197e-10 2.04341e-06 -1.45481e-07
-2.06089e-10 1.0215e-06 -7.30206e-08
-5.56965e-10 2.03964e-06 -1.45131e-07
3.30267e-15 -1.13428e-11 8.14068e-13
1.72939e-06 -6.48388e-10 8.72913e-09
1.73649e-06 7.24511e-11 8.54769e-09
1.7392e-06 4.56184e-10 -4.57773e-09
-2.43248e-10 1.01956e-06 -7.29021e-08
1.77394e-06 -6.55873e-10 9.41994e-09
1.78123e-06 8.91849e-11 8.88937e-09
1.78403e-06 5.237e-10 -4.03454e-09
-5.3314e-10 2.03569e-06 -1.45113e-07
-3.06848e-10 1.01761e-06 -7.28135e-08
1.82088e-06 -6.26586e-10 1.02442e-08
1.82834e-06 1.1369e-10 8.94277e-09
1.83119e-06 6.00151e-10 -3.9096e-09
1.89207e-06 -6.24368e-10 1.12397e-08
1.89967e-06 1.28156e-10 8.78297e-09
1.9026e-06 7.20372e-10 -3.80634e-09
-4.65266e-10 2.02741e-06 -1.44205e-07
-3.78371e-10 1.01347e-06 -7.23812e-08
-4.50073e-10 2.03157e-06 -1.44193e-07
-3.11048e-10 1.01556e-06 -7.2355e-08
1.84753e-06 -6.32756e-10 1.07659e-08
1.85501e-06 9.17273e-11 8.71285e-09
1.85791e-06 6.22464e-10 -3.96238e-09
-2.48502e-16 4.66957e-13 -3.35185e-14
7.75232e-17 5.05342e-13 -3.61083e-14
-7.91252e-10 -2.04717e-06 1.46461e-07
1.64359e-06 -3.59168e-10 4.58678e-09
1.64104e-06 -5.26595e-11 -8.21283e-09
1.63441e-06 6.29453e-10 -7.6568e-09
-2.01928e-10 -1.02335e-06 7.35374e-08
9.01492e-17 -3.82318e-12 2.75836e-13
-2.27308e-10 -1.02516e-06 7.36492e-08
-1.0355e-09 -2.0507e-06 1.46758e-07
-2.01398e-09 -3.07067e-06 2.20256e-07
-1.06945e-10 -4.09264e-06 2.91884e-07
1.62457e-06 9.36208e-10 -1.31265e-08
1.60988e-06 1.27656e-09 -1.18634e-08
-2.71873e-09 -5.1122e-06 3.6056e-07
-2.28634e-09 -3.07591e-06 2.21238e-07
-9.4302e-10 -4.09957e-06 2.93095e-07
-3.11731e-09 -5.12116e-06 3.60134e-07
1.07944e-14 -1.54578e-11 1.11069e-12
1.67966e-06 -4.14664e-10 4.46975e-09
1.67704e-06 -6.72947e-11 -8.30161e-09
1.67019e-06 6.3226e-10 -7.85659e-09
-9.35811e-16 -8.10128e-12 5.82631e-13
-2.05023e-10 -1.02151e-06 7.31883e-08
-6.61032e-10 -2.04342e-06 1.45905e-07
-5.54508e-10 -2.03966e-06 1.45463e-07
1.73921e-06 -4.61395e-10 4.60362e-09
1.73651e-06 -7.68412e-11 -8.50523e-09
1.72942e-06 6.45748e-10 -8.59688e-09
-2.39272e-10 -1.01958e-06 7.29988e-08
1.78404e-06 -5.37116e-10 3.98142e-09
1.78125e-06 -1.01632e-10 -8.89517e-09
1.77398e-06 6.46173e-10 -9.44978e-09
-2.90295e-10 -1.01765e-06 7.27104e-08
-5.42093e-10 -2.03572e-06 1.45104e-07
1.9025e-06 -7.45497e-10 3.63464e-09
1.8996e-06 -1.39998e-10 -8.90645e-09
1.89203e-06 6.24189e-10 -1.13726e-08
-3.86677e-10 -1.01348e-06 7.23767e-08
-5.54193e-10 -2.02744e-06 1.44323e-07
-3.26562e-10 -1.01557e-06 7.23564e-08
-5.26868e-10 -2.0316e-06 1.44367e-07
1.8578e-06 -6.39894e-10 3.71788e-09
1.85492e-06 -1.00689e-10 -8.8135e-09
1.84744e-06 6.33665e-10 -1.07296e-08
1.83114e-06 -6.08014e-10 3.77551e-09
1.82823e-06 -1.20981e-10 -8.96364e-09
1.82072e-06 6.2235e-10 -1.01843e-08
1.66011e-06 9.59301e-10 -1.29087e-08
1.64512e-06 1.34076e-09 -1.13865e-08
-1.86425e-09 -3.06507e-06 2.19046e-07
3.2424e-10 -4.0852e-06 2.90466e-07
-1.8115e-09 -5.10308e-06 3.60469e-07
-1.84038e-09 -3.05944e-06 2.18494e-07
7.11934e-10 -4.07774e-06 2.89872e-07
1.71893e-06 1.00809e-09 -1.32604e-08
1.70334e-06 1.42845e-09 -1.15963e-08
-2.02917e-09 -5.09362e-06 3.61328e-07
1.76313e-06 1.0461e-09 -1.30166e-08
1.74724e-06 1.52829e-09 -1.12218e-08
-1.74998e-09 -3.05357e-06 2.18055e-07
1.11739e-09 -4.06993e-06 2.89155e-07
-1.98184e-09 -5.08418e-06 3.60247e-07
1.88039e-06 1.16087e-09 -1.29469e-08
1.86372e-06 1.83594e-09 -9.85025e-09
-1.36437e-09 -3.04122e-06 2.17126e-07
2.07986e-09 -4.05355e-06 2.87821e-07
-1.25351e-09 -5.06376e-06 3.6134e-07
-1.56293e-09 -3.04743e-06 2.16838e-07
1.58885e-09 -4.0618e-06 2.87474e-07
1.83611e-06 1.12831e-09 -1.28161e-08
1.81977e-06 1.72095e-09 -1.00203e-08
1.80946e-06 1.08692e-09 -1.29107e-08
1.79308e-06 1.63641e-09 -1.06121e-08
-1.69481e-09 -5.07377e-06 3.60194e-07
-1.13343e-08 -6.13675e-06 4.2849e-07
-5.62289e-09 -7.18458e-06 5.00137e-07
-1.19459e-08 -6.14712e-06 4.28911e-07
1.59586e-06 2.43782e-09 -1.464e-08
1.57434e-06 2.70388e-09 -1.86489e-08
1.55203e-06 3.4436e-09 -1.79425e-08
-9.577e-09 -8.29147e-06 5.8574e-07
-1.23063e-08 -9.51497e-06 6.6532e-07
-1.0403e-08 -1.09148e-05 7.41837e-07
-1.1061e-08 -8.30556e-06 5.85741e-07
1.53017e-06 3.79694e-09 -2.42481e-08
1.50116e-06 4.14362e-09 -2.19105e-08
1.47372e-06 5.14841e-09 -2.33131e-08
1.6309e-06 2.45134e-09 -1.50486e-08
1.60861e-06 2.72067e-09 -1.8333e-08
1.58516e-06 3.55702e-09 -1.7418e-08
-1.00633e-08 -6.12571e-06 4.29078e-07
-3.62934e-09 -7.17167e-06 5.0222e-07
1.84628e-06 2.84423e-09 -1.77797e-08
1.82037e-06 3.21839e-09 -1.57521e-08
-1.02363e-08 -6.07947e-06 4.25262e-07
1.79518e-06 4.18367e-09 -1.73629e-08
-1.01849e-08 -6.09167e-06 4.24216e-07
1.80319e-06 2.79487e-09 -1.70739e-08
1.77783e-06 3.14654e-09 -1.60115e-08
-9.73077e-10 -7.11794e-06 5.07066e-07
1.75363e-06 4.008e-09 -1.74728e-08
1.77646e-06 2.68428e-09 -1.68344e-08
-2.01225e-09 -7.13215e-06 5.02697e-07
-1.02416e-08 -6.10358e-06 4.26006e-07
1.75074e-06 3.07419e-09 -1.65426e-08
1.72631e-06 3.91837e-09 -1.75914e-08
-9.61777e-09 -6.11492e-06 4.26626e-07
1.73158e-06 2.63123e-09 -1.6081e-08
1.70726e-06 2.9366e-09 -1.72919e-08
1.68331e-06 3.77076e-09 -1.77159e-08
-2.90896e-09 -7.14588e-06 5.02645e-07
1.68825e-06 2.51108e-09 -1.61079e-08
1.66482e-06 2.79845e-09 -1.82823e-08
-2.8704e-09 -7.15915e-06 5.0083e-07
1.64067e-06 3.64482e-09 -1.83094e-08
1.56363e-06 3.89527e-09 -2.436e-08
1.53359e-06 4.21111e-09 -2.09764e-08
1.50521e-06 5.35083e-09 -2.26074e-08
-7.92167e-09 -8.27719e-06 5.83883e-07
-8.92754e-09 -9.49903e-06 6.63031e-07
-6.14212e-09 -1.08968e-05 7.40956e-07
1.77167e-06 4.8571e-09 -2.19833e-08
-4.62179e-09 -8.21649e-06 5.77561e-07
-5.52633e-09 -9.42873e-06 6.49425e-07
1.73581e-06 5.22689e-09 -1.45194e-08
1.72963e-06 4.65226e-09 -2.27312e-08
1.6956e-06 5.00303e-09 -1.562e-08
4.53192e-10 -1.08181e-05 7.17355e-07
-6.29488e-09 -8.23206e-06 5.76804e-07
-7.6182e-09 -9.4467e-06 6.53427e-07
-1.98552e-09 -1.08387e-05 7.19507e-07
-6.69324e-09 -8.24819e-06 5.78678e-07
-8.08299e-09 -9.46504e-06 6.55928e-07
1.70227e-06 4.5198e-09 -2.32712e-08
1.66858e-06 4.82901e-09 -1.68226e-08
1.65981e-06 4.32e-09 -2.36824e-08
1.62709e-06 4.63544e-09 -1.76449e-08
-2.68115e-09 -1.08585e-05 7.23121e-07
-7.19e-09 -8.2627e-06 5.8122e-07
-8.53371e-09 -9.48205e-06 6.59563e-07
-3.61584e-09 -1.08779e-05 7.2967e-07
1.61757e-06 4.08964e-09 -2.49014e-08
1.58613e-06 4.41921e-09 -2.04511e-08
1.55621e-06 5.53394e-09 -2.36821e-08
1.70061e-06 6.47664e-09 -2.45517e-08
1.66163e-06 6.2606e-09 -2.42709e-08
1.63578e-06 5.98214e-09 -2.4019e-08
1.59542e-06 5.77454e-09 -2.30773e-08
-3.21724e-08 -1.25417e-05 8.53239e-07
-6.0076e-08 -1.43768e-05 9.88436e-07
-7.08081e-08 -1.62969e-05 1.10116e-06
-1.81645e-07 -1.91934e-05 1.34708e-06
1.33159e-06 8.2388e-09 -7.03382e-08
-1.23216e-07 -1.80318e-05 1.23077e-06
1.29657e-06 8.62162e-09 -8.24409e-08
-1.87885e-07 -1.92198e-05 1.34593e-06
1.36531e-06 7.61786e-09 -4.94006e-08
1.26466e-06 8.26868e-09 -7.96154e-08
-2.96703e-08 -1.25225e-05 8.46153e-07
-5.78142e-08 -1.43554e-05 9.90871e-07
-6.59902e-08 -1.62739e-05 1.10259e-06
1.48185e-06 7.52874e-09 -3.82376e-08
1.66244e-06 7.74747e-09 -3.05344e-08
1.62319e-06 8.56169e-09 -3.85216e-08
-2.91413e-08 -1.24349e-05 8.33631e-07
-5.90708e-08 -1.42591e-05 9.77443e-07
-7.01719e-08 -1.61677e-05 1.09454e-06
-6.31596e-08 -1.61956e-05 1.1032e-06
1.62344e-06 7.48061e-09 -3.0166e-08
1.58429e-06 8.30973e-09 -3.86877e-08
1.55912e-06 8.04953e-09 -3.8299e-08
-2.88567e-08 -1.24571e-05 8.36393e-07
-5.61513e-08 -1.42828e-05 9.84664e-07
-2.68685e-08 -1.24799e-05 8.34463e-07
-5.47456e-08 -1.4308e-05 9.82261e-07
-6.11727e-08 -1.62222e-05 1.10236e-06
1.59772e-06 7.21713e-09 -2.97482e-08
1.5578e-06 6.88594e-09 -2.95512e-08
1.51955e-06 7.81936e-09 -3.78995e-08
-2.60648e-08 -1.25008e-05 8.36919e-07
-5.39062e-08 -1.43312e-05 9.83592e-07
-6.19172e-08 -1.62474e-05 1.10217e-06
1.51933e-06 6.65802e-09 -3.01211e-08
1.46922e-06 6.31485e-09 -2.91516e-08
1.43272e-06 7.23995e-09 -3.55286e-08
-1.7225e-07 -1.91647e-05 1.34255e-06
1.32711e-06 8.91943e-09 -8.53361e-08
1.36087e-06 8.54425e-09 -7.21355e-08
-1.17247e-07 -1.80047e-05 1.23498e-06
1.40856e-06 8.94758e-09 -7.53537e-08
1.37349e-06 9.35668e-09 -8.91794e-08
1.44185e-06 8.19696e-09 -5.19716e-08
1.54888e-06 1.04066e-08 -7.98983e-08
-1.48177e-07 -1.90389e-05 1.30507e-06
1.58177e-06 9.44059e-09 -5.39704e-08
-1.18545e-07 -1.78894e-05 1.24787e-06
1.51075e-06 9.98447e-09 -7.88485e-08
1.54385e-06 9.06944e-09 -5.35064e-08
-1.40259e-07 -1.90697e-05 1.31306e-06
-1.13551e-07 -1.79182e-05 1.25319e-06
1.48401e-06 9.64063e-09 -7.82555e-08
-1.45693e-07 -1.91029e-05 1.32597e-06
-1.13248e-07 -1.79483e-05 1.24498e-06
1.5177e-06 8.793e-09 -5.30175e-08
1.44474e-06 9.28902e-09 -7.67706e-08
-1.52914e-07 -1.91336e-05 1.32329e-06
-1.13464e-07 -1.79763e-05 1.23836e-06
1.47848e-06 8.50204e-09 -5.19379e-08
1.50585e-06 1.09163e-08 -8.84959e-08
1.47031e-06 1.0491e-08 -9.05469e-08
1.4462e-06 1.01423e-08 -9.20138e-08
1.409e-06 9.71749e-09 -9.04223e-08
1.39423e-06 7.86857e-09 -4.96532e-08
-2.52793e-07 -1.92232e-05 1.31213e-06
1.43204e-06 1.02193e-08 -3.08566e-08
-2.26421e-07 -1.92544e-05 1.3017e-06
1.39848e-06 9.84623e-09 -3.75635e-08
-2.11611e-07 -1.92869e-05 1.30451e-06
1.37616e-06 9.52414e-09 -4.0588e-08
-2.82031e-07 -1.8248e-05 1.23109e-06
-2.02263e-07 -1.93179e-05 1.29992e-06
1.34234e-06 9.16824e-09 -4.40539e-08
-2.6295e-07 -1.82786e-05 1.2235e-06
1.36029e-06 9.64911e-09 3.09584e-08
-1.96454e-07 -1.93478e-05 1.31169e-06
1.31006e-06 8.86256e-09 -4.83682e-08
-2.59729e-07 -1.83106e-05 1.25402e-06
1.32933e-06 9.269e-09 2.16772e-08
-2.55979e-07 -1.83398e-05 1.26377e-06
1.30787e-06 8.94676e-09 1.65366e-08
-2.03695e-07 -1.93767e-05 1.33198e-06
1.2674e-06 8.49465e-09 -5.07833e-08
-2.66257e-07 -1.64094e-05 1.08436e-06
-2.08958e-07 -1.94057e-05 1.33185e-06
1.24268e-06 8.20497e-09 -5.49127e-08
-2.51304e-07 -1.83688e-05 1.23464e-06
1.27625e-06 8.58241e-09 8.44105e-09
-2.16675e-07 1.93889e-05 -1.06017e-06
-2.02774e-07 1.94693e-05 -1.08441e-06
-2.16925e-07 1.95534e-05 -1.10284e-06
-2.39834e-07 1.96326e-05 -1.1613e-06
-2.66572e-07 1.91906e-05 -1.35256e-06
-2.75804e-07 1.82141e-05 -1.27652e-06
-2.49579e-07 1.6377e-05 -1.10221e-06
1.46157e-06 -1.06327e-08 2.54201e-08
1.38981e-06 -1.00899e-08 -3.48279e-08
-2.60073e-07 1.9155e-05 -1.36333e-06
-2.67437e-07 1.81792e-05 -1.26749e-06
-2.48284e-07 1.6345e-05 -1.08463e-06
-2.13947e-07 1.61735e-05 -1.03706e-06
-2.13861e-07 1.62089e-05 -1.0184e-06
1.44629e-06 -1.05994e-08 -1.52735e-07
1.411e-06 -1.01164e-08 -1.4957e-07
1.38442e-06 -9.73654e-09 -1.46659e-07
1.49614e-06 -1.10792e-08 1.70742e-08
1.4194e-06 -1.04667e-08 -4.85154e-08
-2.41472e-07 1.63119e-05 -1.08067e-06
-2.4163e-07 1.628e-05 -1.04429e-06
-2.18365e-07 1.62429e-05 -1.03235e-06
-2.47447e-07 1.91199e-05 -1.35487e-06
-2.55504e-07 1.81435e-05 -1.25571e-06
1.52515e-06 -1.14494e-08 1.63068e-08
1.44842e-06 -1.07838e-08 -5.2482e-08
-2.31166e-07 1.90843e-05 -1.33914e-06
-2.46659e-07 1.81088e-05 -1.2312e-06
1.56104e-06 -1.19171e-08 1.42908e-08
1.48458e-06 -1.11907e-08 -5.19861e-08
-2.15853e-07 1.90477e-05 -1.30552e-06
-2.26568e-07 1.80705e-05 -1.20404e-06
1.50873e-06 -1.15291e-08 -5.53392e-08
1.54274e-06 -1.19397e-08 -5.97651e-08
1.58403e-06 -1.23211e-08 5.98604e-09
-1.97632e-07 1.9009e-05 -1.29335e-06
-2.19647e-07 1.80342e-05 -1.19695e-06
1.61789e-06 -1.28744e-08 4.02788e-09
-1.79825e-07 1.897e-05 -1.26824e-06
-2.10942e-07 1.79966e-05 -1.18908e-06
1.46768e-06 -1.09706e-08 -1.57783e-07
-1.9944e-07 1.61363e-05 -1.03534e-06
1.55599e-06 -1.18055e-08 -1.68317e-07
-2.14559e-07 1.61044e-05 -1.02275e-06
1.59336e-06 -1.22664e-08 -1.7982e-07
-2.20825e-07 1.60672e-05 -1.02369e-06
1.64451e-06 -1.29071e-08 -1.71261e-07
-2.31053e-07 1.60244e-05 -1.02211e-06
-2.59733e-07 1.44773e-05 -8.58303e-07
1.56467e-06 -1.24023e-08 -6.11752e-08
1.63719e-06 -1.32994e-08 -5.92063e-10
-1.93057e-07 1.79597e-05 -1.15801e-06
-1.71725e-07 1.8932e-05 -1.2633e-06
1.65623e-06 -1.34019e-08 -6.6999e-08
1.73516e-06 -1.4249e-08 3.10982e-09
-1.7718e-07 1.79198e-05 -1.14568e-06
-1.68016e-07 1.88923e-05 -1.24505e-06
1.69964e-06 -1.40087e-08 -6.59714e-08
1.77923e-06 -1.47259e-08 8.13153e-09
1.75067e-06 -1.45762e-08 -5.59632e-08
-1.90074e-07 1.78796e-05 -1.15181e-06
-1.79027e-07 1.88517e-05 -1.24424e-06
1.82688e-06 -1.52397e-08 1.35576e-08
-1.99077e-07 1.78352e-05 -1.14831e-06