# vtk DataFile Version 3.0
vtk output
ASCII
DATASET POLYDATA
POINTS 8484 float
0.18902 0.419756 -0.0239599
0.199139 0.424712 -0.0239216
0.209254 0.42966 -0.0239393
0.229486 0.429566 -0.0235369
0.249708 0.429559 -0.0234847
0.269732 0.429711 -0.0233955
0.329865 0.429553 -0.0234816
0.349835 0.429515 -0.023403
0.369776 0.429482 -0.023401
0.390045 0.429551 -0.0234674
0.410023 0.429525 -0.0233809
0.450029 0.429487 -0.0234291
0.470012 0.429478 -0.0233993
0.489997 0.429473 -0.0234343
0.189058 0.409752 -0.0233745
0.199173 0.41471 -0.0233085
0.209285 0.41966 -0.0233042
0.21939 0.424614 -0.0233952
0.239596 0.42453 -0.0231139
0.259722 0.424744 -0.0231645
0.289739 0.42965 -0.0232971
0.309698 0.429598 -0.0233037
0.319868 0.424576 -0.0232213
0.33985 0.424537 -0.0231011
0.380052 0.424569 -0.0232069
0.400027 0.424541 -0.0230876
0.429989 0.429497 -0.0233775
0.440025 0.424496 -0.0231501
0.460006 0.424484 -0.0230912
0.479987 0.424477 -0.0231015
0.81098 0.419756 -0.0239598
0.800861 0.424712 -0.0239215
0.790746 0.42966 -0.0239392
0.510003 0.429473 -0.023435
0.529988 0.429478 -0.0234001
0.549971 0.429487 -0.0234298
0.589978 0.429525 -0.0233818
0.609955 0.429551 -0.0234683
0.630224 0.429482 -0.023401
0.650165 0.429515 -0.023403
0.670135 0.429553 -0.0234815
0.730268 0.429711 -0.0233955
0.750292 0.429559 -0.0234846
0.770514 0.429566 -0.0235368
0.500029 0.424474 -0.0231804
0.520013 0.424477 -0.0231023
0.539995 0.424484 -0.0230921
0.559975 0.424496 -0.0231511
0.599973 0.424541 -0.0230886
0.619948 0.424569 -0.0232079
0.570011 0.429497 -0.0233784
0.66015 0.424537 -0.0231011
0.680132 0.424576 -0.0232213
0.740278 0.424744 -0.0231645
0.690302 0.429598 -0.0233036
0.710261 0.42965 -0.023297
0.810942 0.409752 -0.0233744
0.800827 0.41471 -0.0233084
0.790715 0.41966 -0.0233041
0.760404 0.42453 -0.0231138
0.78061 0.424614 -0.0233951
0.118123 0.544813 -0.0269576
0.118161 0.534773 -0.0264359
0.108091 0.549874 -0.0260347
0.118198 0.52476 -0.0258776
0.108124 0.539837 -0.0255258
0.118249 0.514769 -0.0252918
0.10816 0.529816 -0.0250296
0.0981291 0.544901 -0.0243807
0.118297 0.504784 -0.0247166
0.108207 0.519821 -0.024479
0.0981547 0.534855 -0.0239303
0.118347 0.494771 -0.0241427
0.108255 0.509797 -0.0239365
0.0981927 0.524808 -0.0234746
0.118411 0.484769 -0.0235713
0.108311 0.499795 -0.0233866
0.0882071 0.549835 -0.0229817
0.168824 0.459781 -0.0251239
0.158633 0.46483 -0.0254058
0.178953 0.464714 -0.025514
0.168775 0.469748 -0.0258129
0.158585 0.474783 -0.0260447
0.178921 0.474677 -0.0261451
0.148391 0.479807 -0.0261608
0.168736 0.479708 -0.0264632
0.158537 0.48474 -0.0267025
0.17889 0.484643 -0.0267941
0.168689 0.489679 -0.0270973
0.148331 0.489765 -0.0268228
0.13819 0.484833 -0.0262024
0.128019 0.489862 -0.026005
0.138259 0.474886 -0.0255413
0.148453 0.469858 -0.0255348
0.128127 0.479923 -0.0252885
0.138326 0.464946 -0.0249018
0.14852 0.459892 -0.0248471
0.128205 0.46998 -0.0246744
0.158707 0.454845 -0.0246859
0.179013 0.454736 -0.0247789
0.168889 0.449796 -0.0244095
0.13844 0.454961 -0.0241581
0.158773 0.444855 -0.0239697
0.179062 0.444753 -0.0240584
0.148619 0.44991 -0.0241051
0.128317 0.46003 -0.0240106
0.168947 0.439804 -0.0237105
0.148694 0.439914 -0.0234112
0.138549 0.444978 -0.0234223
0.158862 0.434869 -0.0232683
0.179129 0.434771 -0.0233589
0.128436 0.450049 -0.023255
0.188963 0.429754 -0.024556
0.219355 0.434612 -0.0240413
0.239574 0.434521 -0.0237726
0.199082 0.434708 -0.0245765
0.229461 0.439555 -0.0242141
0.249686 0.439568 -0.0241348
0.188893 0.439748 -0.025272
0.209204 0.439653 -0.0246288
0.239554 0.444509 -0.0244508
0.199029 0.444701 -0.0252973
0.219323 0.444603 -0.0247522
0.188824 0.449741 -0.0260171
0.209165 0.449642 -0.025355
0.229432 0.449548 -0.0249053
0.249656 0.449608 -0.0248083
0.198977 0.454687 -0.0260529
0.219291 0.45459 -0.0254661
0.239528 0.454497 -0.0251424
0.188755 0.459725 -0.0267992
0.209127 0.459621 -0.0261189
0.229411 0.459523 -0.0256483
0.249638 0.459629 -0.0255486
0.198923 0.464665 -0.0268047
0.219261 0.464561 -0.0262395
0.239509 0.464464 -0.0258967
0.188693 0.469684 -0.0275445
0.209092 0.469587 -0.0268159
0.229394 0.469485 -0.0263584
0.249625 0.469606 -0.0262418
0.198885 0.474615 -0.0274862
0.219246 0.474517 -0.0269032
0.239503 0.474428 -0.0265396
0.188641 0.479636 -0.0282359
0.20907 0.479545 -0.0274913
0.229384 0.479459 -0.0269927
0.249614 0.479559 -0.0268389
0.19885 0.484574 -0.0282146
0.219234 0.484485 -0.0275718
0.239502 0.484401 -0.027185
0.18859 0.489606 -0.0289304
0.209048 0.48952 -0.0281707
0.229379 0.489438 -0.0276533
0.249613 0.489522 -0.0274676
0.178848 0.494626 -0.0274302
0.158487 0.49471 -0.0273585
0.138121 0.494793 -0.0268548
0.168648 0.499661 -0.0277476
0.148272 0.49974 -0.0274706
0.127941 0.499828 -0.0266479
0.158438 0.504697 -0.0279802
0.178818 0.504613 -0.0280836
0.138057 0.504769 -0.027454
0.168613 0.509654 -0.0284031
0.148222 0.509726 -0.0281152
0.12784 0.509793 -0.0273187
0.158396 0.514694 -0.0286345
0.178789 0.514611 -0.0287491
0.138 0.514759 -0.0280905
0.16858 0.519658 -0.029059
0.148176 0.519724 -0.0287552
0.12778 0.519785 -0.0279333
0.15836 0.524701 -0.0292727
0.178763 0.524617 -0.0294073
0.137951 0.524764 -0.0287108
0.168551 0.529668 -0.0296999
0.148137 0.529735 -0.0293728
0.127728 0.529794 -0.0285263
0.15834 0.534726 -0.0298295
0.178748 0.534651 -0.029989
0.137923 0.534772 -0.0292351
0.168548 0.539726 -0.0302057
0.148129 0.539763 -0.0298473
0.127716 0.539793 -0.0289639
0.178748 0.544734 -0.0305223
0.158337 0.544765 -0.0303653
0.137909 0.544792 -0.0297551
0.168543 0.549817 -0.0307546
0.148115 0.54983 -0.0303681
0.12772 0.549838 -0.0294254
0.198816 0.494555 -0.0288798
0.219223 0.494469 -0.028228
0.239501 0.494387 -0.0278222
0.188538 0.499602 -0.0295884
0.209025 0.499518 -0.0288256
0.229372 0.499436 -0.0282937
0.249608 0.499511 -0.0281001
0.198783 0.504559 -0.0295384
0.21921 0.504472 -0.0288815
0.239499 0.504388 -0.0284606
0.188493 0.509619 -0.030237
0.209004 0.509536 -0.0294837
0.229367 0.50945 -0.0289458
0.249608 0.509525 -0.0287413
0.198752 0.514581 -0.0301944
0.219199 0.514492 -0.0295434
0.239489 0.514426 -0.0290927
0.188452 0.519654 -0.0308849
0.208987 0.519565 -0.030141
0.229361 0.519474 -0.0296065
0.249605 0.519564 -0.0294232
0.198726 0.524621 -0.0308496
0.21919 0.524522 -0.030205
0.239486 0.524449 -0.0297577
0.188417 0.529717 -0.0315368
0.208972 0.529613 -0.0308049
0.229357 0.529509 -0.0302762
0.249602 0.529602 -0.0301142
0.198716 0.534667 -0.0314409
0.219192 0.534563 -0.0307963
0.23949 0.534494 -0.0303479
0.188405 0.539739 -0.0321249
0.208981 0.53964 -0.0313668
0.229372 0.539575 -0.0307999
0.249622 0.539667 -0.0305765
0.198714 0.544762 -0.0320129
0.219206 0.544652 -0.0313466
0.23951 0.544549 -0.0308915
0.188386 0.549867 -0.0327414
0.208987 0.549759 -0.0319528
0.249642 0.549801 -0.0310548
0.229391 0.549648 -0.0313716
0.239526 0.554688 -0.0314564
0.118051 0.554865 -0.0274803
0.0980821 0.554933 -0.0248639
0.108016 0.559919 -0.0265295
0.0881446 0.559907 -0.0233862
0.118006 0.564901 -0.027993
0.0980378 0.564965 -0.0253652
0.107977 0.569962 -0.0270494
0.0881056 0.570048 -0.0238061
0.117972 0.574943 -0.0285487
0.0979992 0.57501 -0.0258709
0.107934 0.580004 -0.0275928
0.0880713 0.58009 -0.0243514
0.11793 0.585021 -0.0291604
0.097964 0.585059 -0.0264156
0.107893 0.590069 -0.0282036
0.0880363 0.590143 -0.0249436
0.117904 0.595191 -0.0297569
0.097946 0.595133 -0.0269134
0.107913 0.600202 -0.0286656
0.0880616 0.600212 -0.025343
0.117932 0.605389 -0.0302713
0.097968 0.605243 -0.0273373
0.107932 0.610406 -0.0291819
0.0881014 0.610283 -0.0257477
0.117956 0.615457 -0.0307841
0.0979951 0.615395 -0.0278329
0.107953 0.620518 -0.0297393
0.0881371 0.620363 -0.0262162
0.117993 0.62554 -0.0313444
0.0980068 0.625595 -0.0284518
0.0783161 0.625472 -0.0243721
0.0783351 0.615424 -0.0238842
0.0783126 0.605335 -0.0234893
0.0782977 0.595211 -0.0231273
0.107968 0.630594 -0.0303719
0.0881397 0.630495 -0.0268307
0.117982 0.63563 -0.0320454
0.0979724 0.63566 -0.0291878
0.0782772 0.63551 -0.0250824
0.107921 0.640686 -0.0311673
0.0880455 0.640717 -0.0277368
0.117938 0.645765 -0.0329263
0.0978873 0.645736 -0.0300694
0.078184 0.645626 -0.0259706
0.107835 0.650814 -0.0321478
0.0879241 0.650791 -0.0287227
0.0684001 0.650743 -0.0241203
0.117826 0.655934 -0.0340138
0.0977637 0.655865 -0.0311572
0.0780186 0.655874 -0.0271268
0.107709 0.66102 -0.0331458
0.0877996 0.660926 -0.0297019
0.0681888 0.660755 -0.0250689
0.117716 0.666208 -0.034967
0.0976477 0.666092 -0.0320516
0.0778941 0.665979 -0.027996
0.107591 0.671272 -0.0341313
0.0876768 0.671124 -0.0306157
0.0680806 0.671047 -0.0260012
0.117608 0.676492 -0.0359791
0.0975212 0.676308 -0.0330171
0.0777777 0.676125 -0.0288967
0.0685816 0.640709 -0.0231272
0.178741 0.554844 -0.0310884
0.158321 0.554849 -0.0308994
0.137883 0.554852 -0.0302607
0.168529 0.55994 -0.031316
0.148092 0.55993 -0.0308955
0.127684 0.559911 -0.029925
0.178738 0.564997 -0.0316793
0.158311 0.564978 -0.0314474
0.137862 0.564961 -0.0307753
0.168525 0.57011 -0.0319187
0.14808 0.570083 -0.0314497
0.127659 0.57004 -0.0304455
0.158297 0.575227 -0.0320608
0.178735 0.575183 -0.0323331
0.137845 0.575123 -0.0313316
0.168513 0.580329 -0.0325987
0.148062 0.580293 -0.0320738
0.127629 0.580239 -0.0310276
0.158285 0.585356 -0.0327127
0.178733 0.58529 -0.0330015
0.137822 0.585418 -0.0319447
0.148041 0.590412 -0.0327204
0.168509 0.590344 -0.0332304
0.127579 0.590499 -0.0316707
0.158293 0.59544 -0.0332806
0.178746 0.595372 -0.033551
0.137821 0.595506 -0.0325285
0.148067 0.600505 -0.0332548
0.168542 0.600451 -0.033717
0.127595 0.600585 -0.0322462
0.158324 0.605546 -0.033787
0.178784 0.605489 -0.0339975
0.137844 0.605604 -0.033083
0.148097 0.610612 -0.0337669
0.168579 0.610568 -0.0341808
0.127617 0.610688 -0.0327912
0.158358 0.615663 -0.0342691
0.178822 0.615611 -0.0344383
0.137873 0.615716 -0.0335914
0.198702 0.554925 -0.0326145
0.219211 0.5548 -0.0319185
0.188352 0.560068 -0.0333676
0.208978 0.559943 -0.0325446
0.22939 0.559886 -0.0319516
0.249639 0.559938 -0.0315901
0.198685 0.565168 -0.0332576
0.219212 0.565017 -0.0325325
[...]
POINT_DATA 8484
VECTORS alpha float
4.00994e-06 -1.82785e-08 1.71896e-07
-2.16056e-08 1.65772e-05 -1.15058e-06
4.33135e-06 -1.95878e-08 1.2205e-07
4.49219e-06 -1.88045e-08 6.20704e-08
4.63826e-06 -1.95655e-08 3.26136e-08
4.74432e-06 -1.47355e-08 4.12893e-08
5.08418e-06 -1.01742e-08 3.07599e-08
5.17494e-06 -9.15254e-09 1.07158e-08
5.25719e-06 -8.00546e-09 -8.94268e-09
5.35098e-06 -7.54435e-09 3.1888e-08
5.42077e-06 -6.44523e-09 1.54351e-08
5.52412e-06 -3.10204e-09 1.75327e-08
5.55449e-06 -1.88731e-09 -7.08161e-10
5.5702e-06 -6.49755e-10 -1.87162e-08
3.8857e-06 -1.71371e-08 1.74282e-07
-2.17961e-08 1.66646e-05 -1.1476e-06
4.17807e-06 -1.83331e-08 1.22152e-07
5.73489e-09 1.55304e-05 -1.06535e-06
2.5818e-08 1.39686e-05 -9.44658e-07
1.16477e-08 1.2266e-05 -8.85743e-07
4.85964e-06 -1.36655e-08 1.27884e-08
4.96538e-06 -1.20328e-08 -1.48214e-08
1.24633e-08 7.93812e-06 -5.73637e-07
1.06248e-08 6.87965e-06 -4.95789e-07
4.81964e-09 5.06134e-06 -3.63884e-07
2.56072e-09 4.20867e-06 -3.02847e-07
5.47774e-06 -5.56125e-09 -1.70065e-09
1.81632e-09 2.52251e-06 -1.82377e-07
6.34136e-10 1.68086e-06 -1.21105e-07
2.62629e-11 8.4e-07 -6.04259e-08
4.01048e-06 1.82811e-08 -1.7192e-07
-2.16049e-08 -1.65773e-05 1.1506e-06
4.33094e-06 1.95843e-08 -1.22043e-07
5.57018e-06 6.47097e-10 1.87072e-08
5.5544e-06 1.88259e-09 7.00572e-10
5.52398e-06 3.09534e-09 -1.75399e-08
5.42054e-06 6.43656e-09 -1.5431e-08
5.3507e-06 7.53329e-09 -3.18805e-08
5.25687e-06 8.00502e-09 8.94712e-09
5.17459e-06 9.15099e-09 -1.07163e-08
5.0838e-06 1.01715e-08 -3.07647e-08
4.74387e-06 1.47318e-08 -4.12936e-08
4.63781e-06 1.95596e-08 -3.26324e-08
4.49176e-06 1.88008e-08 -6.20716e-08
-8.63246e-16 -2.71172e-12 1.9509e-13
2.54559e-11 -8.40007e-07 6.04098e-08
6.33595e-10 -1.68088e-06 1.21069e-07
1.81718e-09 -2.52254e-06 1.82319e-07
2.56467e-09 -4.20872e-06 3.02733e-07
4.82624e-09 -5.06139e-06 3.63747e-07
5.47755e-06 5.55497e-09 1.69708e-09
1.06269e-08 -6.87971e-06 4.95774e-07
1.24677e-08 -7.93819e-06 5.73618e-07
1.16493e-08 -1.2266e-05 8.85757e-07
4.96497e-06 1.20315e-08 1.48201e-08
4.8592e-06 1.36629e-08 -1.27915e-08
3.88603e-06 1.71383e-08 -1.743e-07
-2.17948e-08 -1.66647e-05 1.14762e-06
4.17862e-06 1.83355e-08 -1.22172e-07
2.58184e-08 -1.39687e-05 9.44675e-07
5.73537e-09 -1.55304e-05 1.06537e-06
-3.98158e-09 1.11165e-05 -6.5352e-07
-6.24624e-09 1.12365e-05 -6.80755e-07
4.20477e-06 -2.05311e-08 -5.46211e-07
-8.26237e-09 1.13746e-05 -7.0419e-07
4.29004e-06 -2.13664e-08 -5.46563e-07
-1.38195e-08 1.15231e-05 -7.21887e-07
4.36627e-06 -2.33232e-08 -5.44227e-07
-2.70976e-08 1.19363e-05 -6.50215e-07
-1.93182e-08 1.16744e-05 -7.33419e-07
4.37814e-06 -2.36087e-08 -5.32586e-07
-2.99973e-08 1.20344e-05 -6.62238e-07
-2.31887e-08 1.18183e-05 -7.48259e-07
4.35769e-06 -2.50144e-08 -5.17396e-07
-3.29823e-08 1.21476e-05 -6.76907e-07
-3.09675e-08 1.19533e-05 -7.59771e-07
4.28501e-06 -2.60738e-08 -4.95059e-07
3.97533e-06 -2.30245e-08 -7.14813e-07
4.55886e-06 -2.50664e-08 -2.04805e-08
-1.69728e-10 1.53591e-05 -1.1066e-06
3.28472e-08 1.62722e-05 -1.17419e-06
4.78684e-06 -2.60505e-08 -2.15766e-08
7.95905e-10 1.52326e-05 -1.09926e-06
3.31001e-08 1.61472e-05 -1.17272e-06
4.68045e-06 -2.22307e-08 -1.19493e-07
4.97254e-06 -2.46994e-08 -1.98953e-08
-5.30898e-09 1.5098e-05 -1.10185e-06
2.54846e-08 1.60141e-05 -1.18144e-06
5.17591e-06 -2.29428e-08 -2.1238e-08
4.85556e-06 -2.08724e-08 -1.23877e-07
-2.99159e-08 1.34207e-05 -9.71554e-07
4.5355e-06 -1.83411e-08 -2.43363e-07
-2.54816e-08 1.35523e-05 -9.74131e-07
4.51711e-06 -2.45649e-08 -1.14299e-07
4.38394e-06 -1.98562e-08 -2.37547e-07
-2.70902e-08 1.36761e-05 -9.86019e-07
4.3145e-06 -2.37474e-08 -1.07336e-07
4.24034e-06 -2.22857e-08 -2.26946e-07
-1.94883e-09 1.54856e-05 -1.11456e-06
3.17801e-08 1.63952e-05 -1.18193e-06
4.29978e-06 -2.22602e-08 -1.64939e-08
-3.96762e-08 1.3802e-05 -9.86531e-07
-8.43075e-09 1.56009e-05 -1.11128e-06
2.49722e-08 1.65088e-05 -1.17657e-06
4.0775e-06 -2.09908e-08 -1.00539e-07
4.06101e-06 -2.2237e-08 -2.14085e-07
4.11814e-06 -2.01255e-08 -1.45984e-08
3.91105e-06 -1.90387e-08 -9.36075e-08
-5.42251e-08 1.3916e-05 -9.89422e-07
-3.01618e-08 1.57064e-05 -1.11533e-06
2.07103e-09 1.66132e-05 -1.17845e-06
3.84931e-06 -1.96247e-08 -2.00706e-07
4.16165e-06 -1.90209e-08 1.70163e-07
7.73067e-09 1.54471e-05 -1.07144e-06
2.89444e-08 1.38893e-05 -9.53871e-07
-1.47586e-08 1.64868e-05 -1.15579e-06
4.66851e-06 -1.96943e-08 6.98326e-08
4.81406e-06 -2.04301e-08 3.9654e-08
4.33127e-06 -2.01189e-08 1.80965e-07
4.50676e-06 -1.99793e-08 1.32131e-07
3.39807e-08 1.38056e-05 -9.6743e-07
-8.9087e-09 1.63867e-05 -1.1646e-06
1.70236e-08 1.5353e-05 -1.08621e-06
4.53229e-06 -2.15315e-08 1.9349e-07
4.7164e-06 -2.15465e-08 1.43288e-07
4.88358e-06 -2.03603e-08 8.12653e-08
5.02968e-06 -2.13552e-08 5.42165e-08
-4.99834e-09 1.6278e-05 -1.1738e-06
1.90389e-08 1.52563e-05 -1.09624e-06
3.88589e-08 1.37172e-05 -9.82622e-07
4.8213e-06 -2.36644e-08 2.1032e-07
5.02194e-06 -2.37818e-08 1.57539e-07
5.20193e-06 -2.26022e-08 9.23268e-08
5.3567e-06 -2.43666e-08 6.40561e-08
-3.89578e-09 1.61596e-05 -1.17779e-06
2.09994e-08 1.51451e-05 -1.10491e-06
4.05383e-08 1.36186e-05 -9.92459e-07
5.08141e-06 -2.41604e-08 2.25932e-07
5.30095e-06 -2.36278e-08 1.66886e-07
5.49803e-06 -2.31024e-08 1.03233e-07
5.66452e-06 -2.51993e-08 7.80522e-08
-2.81448e-09 1.60527e-05 -1.17183e-06
2.19637e-08 1.50466e-05 -1.10227e-06
4.13728e-08 1.35304e-05 -9.92638e-07
5.29644e-06 -2.28081e-08 2.38773e-07
5.5342e-06 -2.23239e-08 1.79404e-07
5.74608e-06 -2.09875e-08 1.12846e-07
5.92372e-06 -2.2577e-08 9.40072e-08
-3.00379e-09 1.59317e-05 -1.17197e-06
2.04558e-08 1.49391e-05 -1.10205e-06
3.97745e-08 1.34347e-05 -9.94719e-07
5.53993e-06 -2.1741e-08 2.53162e-07
5.80616e-06 -2.14463e-08 1.93395e-07
6.04471e-06 -2.02658e-08 1.25694e-07
6.24454e-06 -2.13476e-08 1.11563e-07
2.14798e-08 1.58714e-05 -1.17275e-06
-5.68499e-09 1.49496e-05 -1.09663e-06
-2.85384e-08 1.32772e-05 -9.6141e-07
5.34659e-06 -2.22636e-08 -2.21348e-08
4.99829e-06 -1.97514e-08 -1.29333e-07
4.65528e-06 -1.68318e-08 -2.52987e-07
1.13748e-09 1.47913e-05 -1.07556e-06
2.77942e-08 1.57079e-05 -1.16351e-06
-2.06e-08 1.31257e-05 -9.361e-07
5.47739e-06 -2.1954e-08 -2.48021e-08
5.10449e-06 -1.89427e-08 -1.3545e-07
4.74607e-06 -1.56614e-08 -2.59455e-07
8.22183e-09 1.46178e-05 -1.05296e-06
3.25664e-08 1.55313e-05 -1.14198e-06
-1.18799e-08 1.2962e-05 -9.12692e-07
5.52154e-06 -2.2039e-08 -2.91392e-08
5.13351e-06 -1.84788e-08 -1.41204e-07
4.76858e-06 -1.47665e-08 -2.67241e-07
1.48737e-08 1.44373e-05 -1.0251e-06
3.66447e-08 1.53439e-05 -1.11268e-06
-3.4087e-09 1.27955e-05 -8.86925e-07
5.49255e-06 -2.29963e-08 -3.54021e-08
5.10222e-06 -1.88478e-08 -1.47408e-07
4.74435e-06 -1.45519e-08 -2.74171e-07
2.02011e-08 1.42623e-05 -1.00015e-06
3.94313e-08 1.51557e-05 -1.08563e-06
3.88273e-09 1.26399e-05 -8.63478e-07
5.33656e-06 -1.6738e-08 -4.14003e-08
4.96342e-06 -1.26756e-08 -1.50854e-07
4.63303e-06 -8.50396e-09 -2.76422e-07
3.78742e-08 1.4976e-05 -1.07244e-06
2.18988e-08 1.40994e-05 -9.90275e-07
6.73009e-09 1.25033e-05 -8.56474e-07
5.11845e-06 -1.24429e-08 -4.50734e-08
4.78266e-06 -8.39545e-09 -1.51023e-07
4.49591e-06 -4.34292e-09 -2.76831e-07
-1.47507e-10 1.5797e-05 -1.16294e-06
2.09323e-08 1.48151e-05 -1.09674e-06
3.82843e-08 1.33243e-05 -9.93124e-07
5.75017e-06 -2.075e-08 2.61403e-07
6.04768e-06 -2.09013e-08 2.03864e-07
6.31694e-06 -2.01485e-08 1.37635e-07
6.54372e-06 -2.01994e-08 1.29654e-07
6.27586e-09 1.56435e-05 -1.15102e-06
2.40221e-08 1.46721e-05 -1.08851e-06
3.84621e-08 1.31957e-05 -9.88494e-07
5.91893e-06 -2.03912e-08 2.65225e-07
6.24839e-06 -2.09961e-08 2.10486e-07
6.55079e-06 -2.08004e-08 1.46128e-07
6.80838e-06 -1.86743e-08 1.44221e-07
1.27186e-08 1.54716e-05 -1.13376e-06
2.65939e-08 1.45107e-05 -1.07488e-06
3.63293e-08 1.30545e-05 -9.76541e-07
5.99329e-06 -2.05506e-08 2.63528e-07
6.35103e-06 -2.18791e-08 2.11498e-07
6.68568e-06 -2.24068e-08 1.49441e-07
6.97438e-06 -1.70914e-08 1.57709e-07
1.91201e-08 1.52823e-05 -1.11443e-06
2.90502e-08 1.43298e-05 -1.05741e-06
3.53658e-08 1.28884e-05 -9.62785e-07
5.98221e-06 -2.1707e-08 2.57149e-07
6.35941e-06 -2.37658e-08 2.07797e-07
6.71992e-06 -2.51709e-08 1.47877e-07
7.03714e-06 -1.66605e-08 1.64159e-07
2.40547e-08 1.50996e-05 -1.09527e-06
3.03815e-08 1.41496e-05 -1.03966e-06
3.34981e-08 1.27179e-05 -9.49567e-07
5.826e-06 -1.82832e-08 2.56469e-07
6.20865e-06 -2.01994e-08 2.08763e-07
6.58349e-06 -2.00939e-08 1.47856e-07
6.92399e-06 -1.03852e-08 1.69666e-07
2.59584e-08 1.493e-05 -1.08421e-06
2.98208e-08 1.39741e-05 -1.02775e-06
3.22473e-08 1.254e-05 -9.36985e-07
5.58538e-06 -1.62636e-08 2.51474e-07
5.9541e-06 -1.75697e-08 2.05386e-07
6.67887e-06 -6.71968e-09 1.66968e-07
6.32828e-06 -1.82981e-08 1.49567e-07
2.95203e-08 1.23575e-05 -9.22401e-07
9.26138e-09 1.10206e-05 -6.31906e-07
-1.72508e-08 1.18558e-05 -6.40822e-07
4.08322e-06 -1.88832e-08 -5.39832e-07
3.92077e-06 -2.11416e-08 -7.17799e-07
2.71476e-08 1.096e-05 -6.22416e-07
2.74624e-09 1.18112e-05 -6.36393e-07
4.00616e-06 -1.91692e-08 -5.37775e-07
3.91457e-06 -1.9421e-08 -7.30349e-07
4.56501e-08 1.09452e-05 -6.12014e-07
2.56994e-08 1.18057e-05 -6.24099e-07
4.13961e-06 -2.07545e-08 -5.63537e-07
4.08467e-06 -2.13106e-08 -7.75873e-07
6.52467e-08 1.09618e-05 -6.06988e-07
4.82483e-08 1.18195e-05 -6.08112e-07
4.26184e-06 -2.21366e-08 -5.87469e-07
4.25939e-06 -2.42875e-08 -8.20579e-07
8.38932e-08 1.10158e-05 -6.04486e-07
7.1329e-08 1.18627e-05 -5.90882e-07
4.57478e-06 -1.53335e-08 -6.36267e-07
4.59603e-06 -1.71837e-08 -8.9322e-07
9.76903e-08 1.10981e-05 -6.0665e-07
9.19014e-08 1.19251e-05 -5.8283e-07
5.14147e-06 -6.29636e-09 -7.25353e-07
5.13931e-06 -9.88752e-09 -1.00489e-06
1.08881e-07 1.1193e-05 -6.18486e-07
1.0179e-07 1.19792e-05 -6.07565e-07
6.04874e-06 -7.81043e-10 -8.59031e-07
5.95591e-06 -1.34121e-09 -1.17167e-06
1.08045e-07 1.12724e-05 -6.44403e-07
9.54378e-08 1.19924e-05 -6.72924e-07
1.36385e-07 1.75861e-05 -8.98173e-07
1.41907e-07 1.76663e-05 -8.29467e-07
1.19375e-07 1.76818e-05 -7.91417e-07
8.20764e-08 1.76314e-05 -8.07648e-07
7.29419e-06 3.85236e-09 -1.03335e-06
7.02639e-06 1.24969e-08 -1.3937e-06
1.01218e-07 1.13069e-05 -7.1399e-07
8.27411e-08 1.19325e-05 -7.55481e-07
1.0552e-07 1.74155e-05 -1.02438e-06
8.93227e-06 1.30846e-08 -1.26674e-06
8.38936e-06 3.03783e-08 -1.69439e-06
7.75288e-08 1.12359e-05 -7.99913e-07
6.13734e-08 1.17506e-05 -8.46463e-07
5.88196e-08 1.71199e-05 -1.19821e-06
1.08812e-05 2.73939e-08 -1.54232e-06
9.96021e-06 4.08081e-08 -2.0308e-06
8.81053e-06 5.78448e-09 -2.33407e-06
4.25823e-08 1.10057e-05 -9.2e-07
2.34067e-08 1.13963e-05 -9.6447e-07
-6.39708e-09 1.66366e-05 -1.4278e-06
1.30756e-05 6.0893e-08 -1.86726e-06
1.16827e-05 7.14648e-08 -2.40187e-06
1.00858e-05 5.25822e-08 -2.69225e-06
5.39814e-09 1.0541e-05 -9.86741e-07
-4.4893e-09 1.08094e-05 -1.02294e-06
-4.25399e-08 1.59236e-05 -1.4899e-06
1.53169e-05 1.05677e-07 -2.2131e-06
1.33886e-05 1.29272e-07 -2.77913e-06
1.13026e-05 1.20131e-07 -3.07777e-06
-2.14321e-08 9.80325e-06 -9.8264e-07
-2.96678e-08 9.95044e-06 -1.01187e-06
-7.33984e-08 1.49821e-05 -1.50331e-06
7.60959e-06 -5.11173e-09 -2.00745e-06
4.30238e-08 1.48112e-05 -1.0568e-06
2.8919e-08 1.39609e-05 -9.76346e-07
1.46257e-08 1.23944e-05 -8.45936e-07
4.78804e-06 -9.30532e-09 -4.84021e-08
4.51725e-06 -5.21728e-09 -1.48037e-07
4.30275e-06 -1.33085e-09 -2.69785e-07
5.68724e-08 1.46749e-05 -1.0326e-06
4.46711e-08 1.38568e-05 -9.57082e-07
3.07692e-08 1.23232e-05 -8.32383e-07
4.45032e-06 -8.40694e-09 -5.19149e-08
4.26708e-06 -4.26678e-09 -1.4618e-07
4.14249e-06 -2.37115e-10 -2.64985e-07
5.47658e-08 1.37956e-05 -9.43863e-07
6.78402e-08 1.45733e-05 -9.99815e-07
4.57977e-08 1.2293e-05 -8.15353e-07
4.37434e-06 -1.05657e-08 -5.93735e-08
4.27304e-06 -6.17118e-09 -1.53688e-07
4.22194e-06 -1.8672e-09 -2.76435e-07
6.95531e-08 1.37602e-05 -8.94144e-07
8.0555e-08 1.45041e-05 -9.30754e-07
5.58675e-08 1.22967e-05 -8.08666e-07
4.21898e-06 -1.14971e-08 -1.54846e-07
4.20871e-06 -1.66701e-08 -5.51677e-08
4.26981e-06 -5.48173e-09 -2.8656e-07
8.58695e-08 1.37783e-05 -8.14543e-07
9.48483e-08 1.449e-05 -8.32056e-07
7.26194e-08 1.23394e-05 -7.49483e-07
4.38855e-06 -8.73134e-09 -1.5149e-07
4.26566e-06 -1.39779e-08 -4.53566e-08
4.52981e-06 -2.79809e-09 -2.95814e-07
1.01804e-07 1.38527e-05 -7.25609e-07
1.07433e-07 1.45381e-05 -7.37923e-07
9.04274e-08 1.24278e-05 -6.70053e-07
4.88925e-06 -7.36715e-09 -1.5902e-07
4.67478e-06 -1.33387e-08 -3.70204e-08
5.08893e-06 -9.5816e-10 -3.26289e-07
1.08532e-07 1.39753e-05 -6.91292e-07
1.11649e-07 1.46458e-05 -6.97234e-07
9.87929e-08 1.25484e-05 -6.43447e-07
2.9461e-08 1.47639e-05 -1.08125e-06
3.2079e-08 1.37958e-05 -1.0193e-06
5.20144e-06 -1.54708e-08 2.38734e-07
5.53117e-06 -1.62689e-08 1.94314e-07
5.88067e-06 -1.51229e-08 1.37988e-07
6.22828e-06 -6.34826e-09 1.61747e-07
3.60113e-08 1.46127e-05 -1.08269e-06
3.77294e-08 1.36252e-05 -1.01364e-06
3.4806e-08 1.21832e-05 -9.26858e-07
4.78254e-06 -1.70454e-08 2.20959e-07
5.04653e-06 -1.71974e-08 1.77929e-07
5.3465e-06 -1.55559e-08 1.24531e-07
5.66298e-06 -5.91826e-09 1.39679e-07
4.67014e-08 1.44757e-05 -1.04456e-06
4.26203e-08 1.34721e-05 -1.00517e-06
3.74548e-08 1.20135e-05 -9.17814e-07
4.62526e-06 -2.13836e-08 2.16951e-07
4.80894e-06 -2.10048e-08 1.69331e-07
5.0401e-06 -1.95937e-08 1.17389e-07
5.30532e-06 -1.05882e-08 1.27061e-07
6.25709e-08 1.4361e-05 -9.66275e-07
5.44597e-08 1.33309e-05 -9.19821e-07
4.5179e-08 1.18564e-05 -8.37174e-07
4.34242e-06 -2.72521e-08 2.1005e-07
4.41361e-06 -2.62786e-08 1.59733e-07
4.5445e-06 -2.38883e-08 1.08607e-07
4.72974e-06 -1.66844e-08 1.11412e-07
7.73828e-08 1.4325e-05 -8.55269e-07
6.53707e-08 1.3261e-05 -8.15866e-07
5.2238e-08 1.17574e-05 -7.44333e-07
4.27737e-06 -2.44409e-08 2.15405e-07
4.21751e-06 -2.25143e-08 1.63413e-07
4.22509e-06 -1.91971e-08 1.14117e-07
4.30723e-06 -1.43275e-08 9.96193e-08
9.46735e-08 1.43639e-05 -7.03321e-07
7.83965e-08 1.32611e-05 -6.81543e-07
6.08125e-08 1.17193e-05 -6.27981e-07
4.5822e-06 -2.64235e-08 2.37842e-07
4.38665e-06 -2.21326e-08 1.77538e-07
4.25919e-06 -1.84578e-08 1.26973e-07
4.22009e-06 -1.45121e-08 9.59213e-08
1.06392e-07 1.44661e-05 -6.15585e-07
8.64435e-08 1.33257e-05 -5.99121e-07
6.51125e-08 1.1744e-05 -5.56792e-07
5.84551e-06 -6.78952e-09 -1.85732e-07
5.57746e-06 -1.47575e-08 -3.49498e-08
6.05224e-06 1.79331e-09 -3.90462e-07
1.15535e-07 1.48063e-05 -7.20425e-07
1.02598e-07 1.26793e-05 -6.82276e-07
1.13228e-07 1.41325e-05 -7.3039e-07
7.05192e-06 -1.83897e-08 -3.42702e-08
7.30537e-06 -8.89704e-09 -2.31536e-07
7.4411e-06 2.51736e-09 -4.91876e-07
1.01387e-07 1.42891e-05 -8.30101e-07
1.00134e-07 1.49936e-05 -8.29693e-07
9.44867e-08 1.27828e-05 -7.79312e-07
9.36134e-06 -9.64692e-09 -3.1175e-07
9.21241e-06 -2.60095e-08 -4.20804e-08
9.3269e-06 5.2619e-09 -6.5277e-07
6.67058e-08 1.44084e-05 -1.03992e-06
6.05952e-08 1.51763e-05 -1.05545e-06
6.53128e-08 1.28132e-05 -9.61329e-07
1.19623e-05 -8.74647e-09 -4.45311e-07
1.20354e-05 -3.32788e-08 -7.33004e-08
1.16369e-05 1.1621e-08 -8.91238e-07
1.03005e-08 1.44328e-05 -1.36164e-06
-1.23696e-09 1.52992e-05 -1.41706e-06
1.49287e-08 1.2714e-05 -1.23199e-06
1.50499e-05 1.13939e-08 -5.88797e-07
1.5464e-05 -2.36936e-08 -1.27091e-07
1.43156e-05 3.84068e-08 -1.12575e-06
-2.02542e-08 1.24049e-05 -1.38364e-06
-3.51136e-08 1.42713e-05 -1.57888e-06
-5.28808e-08 1.52725e-05 -1.66945e-06
1.7142e-05 1.02842e-07 -1.28933e-06
1.83853e-05 6.07959e-08 -6.96263e-07
1.92495e-05 1.38875e-08 -1.85833e-07
-9.85696e-08 1.5061e-05 -1.82286e-06
-4.85983e-08 1.18353e-05 -1.44501e-06
-7.42806e-08 1.38774e-05 -1.69992e-06
5.41764e-06 -3.20103e-08 2.8437e-07
5.09248e-06 -2.53848e-08 2.14347e-07
4.82423e-06 -1.97814e-08 1.56412e-07
4.65261e-06 -1.78274e-08 1.04353e-07
1.12548e-07 1.46322e-05 -6.21838e-07
8.89199e-08 1.34591e-05 -6.02609e-07
6.40005e-08 1.1837e-05 -5.60967e-07
6.89665e-06 -4.55597e-08 3.58287e-07
6.47835e-06 -3.48565e-08 2.80096e-07
6.09281e-06 -2.57912e-08 2.14353e-07
5.80604e-06 -2.4939e-08 1.25909e-07
1.06297e-07 1.48347e-05 -7.42792e-07
7.96447e-08 1.36454e-05 -7.06794e-07
5.35973e-08 1.19866e-05 -6.57273e-07
9.15013e-06 -6.79051e-08 4.49515e-07
8.69218e-06 -5.57346e-08 3.80248e-07
8.2247e-06 -3.85915e-08 3.13265e-07
7.83622e-06 -4.18869e-08 1.64716e-07
8.01473e-08 1.5052e-05 -1.0269e-06
5.43555e-08 1.38597e-05 -9.69791e-07
2.88425e-08 1.21853e-05 -8.81503e-07
1.21919e-05 -1.06905e-07 5.38351e-07
1.17827e-05 -8.99038e-08 4.99403e-07
1.13061e-05 -6.40381e-08 4.53238e-07
1.08494e-05 -7.75574e-08 2.7625e-07
2.81056e-08 1.52478e-05 -1.52396e-06
5.5988e-09 1.40823e-05 -1.43323e-06
-1.48226e-08 1.24072e-05 -1.29483e-06
1.59831e-05 -1.42564e-07 6.97553e-07
1.57148e-05 -1.13502e-07 6.51113e-07
1.53104e-05 -8.80944e-08 6.11014e-07
1.48936e-05 -9.88256e-08 4.67789e-07
-1.01556e-08 1.53349e-05 -1.84018e-06
-3.09769e-08 1.42412e-05 -1.72301e-06
-4.7739e-08 1.2591e-05 -1.54826e-06
2.02773e-05 -1.39948e-07 9.95129e-07
2.02502e-05 -1.1286e-07 8.92125e-07
2.00022e-05 -8.01674e-08 7.81725e-07
1.97037e-05 -1.01399e-07 6.29702e-07
-4.63761e-08 1.52872e-05 -2.08042e-06
-6.53936e-08 1.4294e-05 -1.95563e-06
-7.82233e-08 1.2701e-05 -1.75245e-06
2.08472e-08 9.1073e-06 -6.56203e-07
1.60635e-08 1.21922e-05 -8.90565e-07
4.92571e-06 -1.60735e-08 4.7523e-08
5.03806e-06 -1.43219e-08 1.84447e-08
5.13912e-06 -1.22921e-08 -8.51438e-09
1.98672e-08 1.21146e-05 -8.96915e-07
2.20481e-08 1.04817e-05 -7.69998e-07
2.30654e-08 9.04528e-06 -6.60181e-07
5.15069e-06 -1.81427e-08 5.25689e-08
5.26189e-06 -1.61499e-08 2.28562e-08
5.3601e-06 -1.38582e-08 -4.53391e-09
2.18283e-08 1.20334e-05 -9.01295e-07
2.42124e-08 1.04073e-05 -7.7592e-07
2.44534e-08 8.97878e-06 -6.64929e-07
5.49103e-06 -2.08212e-08 5.78591e-08
5.60502e-06 -1.85679e-08 2.77847e-08
5.70312e-06 -1.59958e-08 2.41736e-10
2.32336e-08 1.19433e-05 -9.0529e-07
2.48197e-08 1.03289e-05 -7.78401e-07
2.44551e-08 8.91014e-06 -6.66117e-07
5.81687e-06 -2.19947e-08 6.67331e-08
5.93692e-06 -1.94464e-08 3.56331e-08
6.03764e-06 -1.65459e-08 7.22014e-09
2.55039e-08 1.18757e-05 -8.99901e-07
2.61265e-08 1.02697e-05 -7.75059e-07
2.50705e-08 8.85826e-06 -6.64229e-07
6.09603e-06 -2.08706e-08 7.89814e-08
6.22214e-06 -1.79981e-08 4.77628e-08
6.32523e-06 -1.4742e-08 1.93533e-08
2.72049e-08 1.18003e-05 -8.97743e-07
2.69208e-08 1.0205e-05 -7.74357e-07
2.5225e-08 8.80271e-06 -6.6456e-07
6.44799e-06 -2.02173e-08 9.28651e-08
6.59058e-06 -1.70967e-08 6.11872e-08
6.70537e-06 -1.35484e-08 3.23436e-08
2.05663e-08 1.05491e-05 -7.66375e-07
1.37088e-08 7.88252e-06 -5.74128e-07
1.14739e-08 6.82852e-06 -4.96178e-07
9.50366e-09 5.88984e-06 -4.27498e-07
5.25968e-06 -1.07549e-08 3.36413e-08
5.34766e-06 -9.48832e-09 1.34163e-08
5.42746e-06 -8.08612e-09 -6.29369e-09
1.05025e-08 5.84204e-06 -4.2889e-07
1.67867e-08 7.82646e-06 -5.73946e-07
5.64601e-06 -8.6097e-09 -3.46762e-09
1.41554e-08 6.77509e-06 -4.9798e-07
5.48527e-06 -1.12446e-08 3.85387e-08
5.56912e-06 -1.01124e-08 1.80133e-08
1.86777e-08 7.76652e-06 -5.76415e-07
1.48237e-08 6.72244e-06 -4.98123e-07
1.15756e-08 5.79325e-06 -4.29228e-07
5.83305e-06 -1.25799e-08 4.37937e-08
5.91594e-06 -1.08719e-08 2.2504e-08
5.98988e-06 -9.00658e-09 1.96423e-09
1.9492e-08 7.70579e-06 -5.75264e-07
1.56584e-08 6.66565e-06 -4.99339e-07
1.19237e-08 5.74215e-06 -4.3028e-07
6.1761e-06 -1.29762e-08 4.85933e-08
6.25896e-06 -1.10165e-08 2.6328e-08
6.33159e-06 -8.88764e-09 4.90131e-09
2.05716e-08 7.662e-06 -5.72027e-07
1.61726e-08 6.62618e-06 -4.96146e-07
1.20307e-08 5.70644e-06 -4.27102e-07
6.47171e-06 -1.15364e-08 5.25713e-08
6.55248e-06 -9.90911e-09 3.01324e-08
6.6225e-06 -7.44459e-09 8.23046e-09
2.13726e-08 7.61582e-06 -5.71432e-07
1.6509e-08 6.58553e-06 -4.9513e-07
1.2034e-08 5.67042e-06 -4.25725e-07
6.86796e-06 -1.07989e-08 5.87833e-08
6.9546e-06 -8.98909e-09 3.50784e-08
7.02757e-06 -6.24092e-09 1.21081e-08
2.91285e-08 1.17097e-05 -8.94476e-07
2.76638e-08 1.01276e-05 -7.73002e-07
2.51343e-08 8.73717e-06 -6.64668e-07
6.78401e-06 -1.95484e-08 1.07024e-07
6.94856e-06 -1.63979e-08 7.52142e-08
7.08017e-06 -1.27782e-08 4.6149e-08
3.11434e-08 1.16024e-05 -8.89913e-07
2.77925e-08 1.00359e-05 -7.71823e-07
2.39267e-08 8.66008e-06 -6.66204e-07
7.09191e-06 -1.92589e-08 1.19481e-07