# vtk DataFile Version 3.0
vtk output
ASCII
DATASET POLYDATA
POINTS 12726 float
0.1871 0.639707 -0.0368535
0.187184 0.629719 -0.0361724
0.197491 0.634654 -0.0360694
0.207776 0.639589 -0.0360603
0.187274 0.619719 -0.0354827
0.228311 0.63949 -0.0355836
0.329353 0.639179 -0.0355871
0.389814 0.639056 -0.0356054
0.449913 0.638975 -0.0355192
0.489958 0.638982 -0.0355108
0.197571 0.624664 -0.0354167
0.207839 0.629612 -0.0354065
0.218076 0.634561 -0.0354712
0.238542 0.634452 -0.0351471
0.258817 0.634424 -0.035211
0.248726 0.639444 -0.035485
0.26892 0.639368 -0.0354144
0.319302 0.634216 -0.0353513
0.339385 0.634173 -0.0352109
0.289045 0.639293 -0.0353197
0.309111 0.639237 -0.0353906
0.349428 0.639145 -0.0355017
0.379798 0.634082 -0.0353862
0.399813 0.63406 -0.0352303
0.419822 0.634042 -0.0351593
0.369519 0.639079 -0.0355206
0.409819 0.639035 -0.0355121
0.439891 0.633989 -0.0352752
0.45991 0.633988 -0.0351768
0.479931 0.63399 -0.0351735
0.499945 0.633997 -0.0352636
0.429862 0.638998 -0.0354767
0.469921 0.638974 -0.0354959
0.187354 0.609728 -0.0347921
0.167042 0.639806 -0.0348749
0.218129 0.624561 -0.0348072
0.228351 0.629503 -0.0349186
0.248745 0.629458 -0.034834
0.279006 0.634344 -0.0350296
0.329355 0.629197 -0.0349437
0.29909 0.634276 -0.0350215
0.349439 0.629165 -0.034845
0.369526 0.6291 -0.0348697
0.389802 0.629073 -0.0349749
0.409812 0.629052 -0.034867
0.359484 0.634122 -0.0351476
0.429859 0.629019 -0.0348383
0.449892 0.628993 -0.0349032
0.46991 0.628993 -0.0348553
0.48993 0.628997 -0.0348997
0.8129 0.639707 -0.0368535
0.812815 0.629719 -0.0361725
0.792224 0.639589 -0.0360606
0.802509 0.634654 -0.0360698
0.510042 0.638982 -0.0355108
0.550087 0.638975 -0.0355188
0.610186 0.639056 -0.0356049
0.670647 0.639179 -0.0355871
0.771689 0.639489 -0.035584
0.812726 0.619718 -0.0354832
0.520069 0.63399 -0.0351734
0.54009 0.633987 -0.0351765
0.560109 0.633989 -0.0352747
0.530079 0.638973 -0.0354957
0.570138 0.638998 -0.0354762
0.580178 0.634042 -0.0351591
0.600187 0.634059 -0.0352298
0.620202 0.634081 -0.0353856
0.590181 0.639035 -0.0355117
0.630481 0.639079 -0.0355199
0.650572 0.639144 -0.0355007
0.660615 0.634173 -0.035211
0.680698 0.634216 -0.0353513
0.690889 0.639237 -0.0353905
0.710955 0.639293 -0.0353194
0.731079 0.639368 -0.0354147
0.741183 0.634424 -0.0352114
0.761458 0.634451 -0.0351475
0.751274 0.639444 -0.0354854
0.781924 0.63456 -0.0354717
0.792161 0.629611 -0.035407
0.802429 0.624664 -0.0354173
0.51007 0.628997 -0.0348998
0.53009 0.628993 -0.0348551
0.550108 0.628993 -0.0349028
0.570141 0.629018 -0.0348378
0.590188 0.629052 -0.0348666
0.610198 0.629072 -0.0349744
0.630473 0.629099 -0.034869
0.640516 0.634122 -0.0351467
0.650561 0.629165 -0.034844
0.670645 0.629197 -0.0349438
0.70091 0.634276 -0.0350214
0.720994 0.634344 -0.0350294
0.781871 0.624561 -0.0348078
0.751255 0.629458 -0.0348345
0.771649 0.629503 -0.0349191
0.812646 0.609727 -0.0347928
0.832958 0.639806 -0.0348754
0.177259 0.644739 -0.0353696
0.16694 0.649803 -0.0355173
0.17717 0.654733 -0.0359967
0.166835 0.659794 -0.0361445
0.177082 0.66472 -0.0366314
0.125069 0.719964 -0.037123
0.125189 0.709997 -0.0365401
0.176996 0.674698 -0.037264
0.176909 0.684672 -0.0378887
0.13535 0.714878 -0.0377776
0.176649 0.714579 -0.0397091
0.166255 0.719641 -0.0397776
0.166342 0.709661 -0.0392022
0.176742 0.704606 -0.0391167
0.155991 0.714724 -0.0389788
0.14558 0.719788 -0.0388042
0.166445 0.699698 -0.038625
0.156074 0.704746 -0.0384858
0.176831 0.694641 -0.0385138
0.145711 0.709817 -0.0382171
0.16654 0.689728 -0.0380252
0.156173 0.694781 -0.0379061
0.1458 0.699841 -0.0376581
0.135454 0.704915 -0.0372134
0.166641 0.679754 -0.0374103
0.156278 0.684811 -0.0373133
0.145912 0.689872 -0.0370851
0.135576 0.694935 -0.0366726
0.166742 0.669776 -0.0367775
0.156389 0.674834 -0.0367001
0.146029 0.679896 -0.0364929
0.156488 0.664848 -0.0360743
0.125296 0.700026 -0.0360122
0.135701 0.684959 -0.0361074
0.146151 0.669918 -0.035882
0.156608 0.654858 -0.0354412
0.125428 0.690045 -0.0354567
0.135833 0.67498 -0.0355141
0.146274 0.65993 -0.0352594
0.156721 0.644863 -0.0348061
0.135957 0.664997 -0.0349045
0.125558 0.68006 -0.03488
0.104701 0.789839 -0.0363491
0.104819 0.779858 -0.0357761
0.104939 0.769869 -0.035217
0.105064 0.759879 -0.0346606
0.135225 0.724843 -0.0383854
0.176576 0.724551 -0.0403
0.155852 0.724693 -0.0396279
0.124935 0.729933 -0.0377146
0.145455 0.729758 -0.0394198
0.166136 0.729609 -0.0403754
0.11466 0.794742 -0.038577
0.114777 0.784758 -0.0379677
0.114894 0.77477 -0.0373764
0.115017 0.764779 -0.0367946
0.115139 0.754801 -0.0362466
0.115236 0.744843 -0.035731
0.1351 0.734817 -0.0389869
0.155723 0.734664 -0.040287
0.176474 0.734519 -0.0409194
0.124804 0.739906 -0.03832
0.145336 0.739731 -0.0400577
0.186171 0.739475 -0.04329
0.166048 0.739582 -0.0409644
0.134982 0.744792 -0.0396231
0.155608 0.74463 -0.0409507
0.176375 0.744481 -0.0415621
0.124652 0.749876 -0.0389643
0.124492 0.759856 -0.0396239
0.124372 0.769815 -0.0402116
0.124249 0.779779 -0.0408016
0.124145 0.789754 -0.0413616
0.145212 0.749702 -0.0407263
0.165909 0.749539 -0.0416884
0.186055 0.74944 -0.0439965
0.134845 0.754768 -0.0402986
0.155495 0.754597 -0.0416373
0.176269 0.754441 -0.0422415
0.134708 0.76474 -0.0409503
0.134596 0.7747 -0.0415638
0.134497 0.784669 -0.0421635
0.134393 0.794652 -0.0427666
0.145064 0.759665 -0.0414304
0.1658 0.759503 -0.0423971
0.185941 0.759408 -0.0447289
0.155385 0.764565 -0.0423161
0.176159 0.764407 -0.0429703
0.144965 0.769621 -0.042073
0.165726 0.769459 -0.0430531
0.185858 0.769374 -0.045405
0.155287 0.774517 -0.0429805
0.176095 0.774366 -0.0436346
0.144867 0.779587 -0.0427177
0.144775 0.789563 -0.0433371
0.165652 0.779423 -0.0437161
0.185777 0.779347 -0.0460878
0.155206 0.784486 -0.0436313
0.176034 0.784331 -0.0443007
0.185702 0.789325 -0.0467734
0.155121 0.794467 -0.0442831
0.165583 0.789399 -0.0443809
0.175973 0.794312 -0.0449823
0.115347 0.734883 -0.0352022
0.104578 0.79982 -0.0369192
0.104457 0.809785 -0.037495
0.104328 0.819767 -0.0380578
0.104178 0.829735 -0.0386849
0.104037 0.839711 -0.0393132
0.103912 0.849677 -0.0399729
0.103796 0.859625 -0.0406218
0.0938817 0.86471 -0.0383739
0.0937271 0.874709 -0.0390091
0.103671 0.869566 -0.0412915
0.0940422 0.854751 -0.037713
0.0941904 0.844802 -0.0371004
0.0943011 0.834846 -0.0365347
0.0944239 0.824869 -0.0359685
0.0842351 0.869949 -0.0356591
0.0945246 0.814885 -0.0354325
0.0843731 0.859987 -0.0350587
0.0946487 0.80491 -0.0349104
0.124029 0.799734 -0.0419382
0.144675 0.799542 -0.0439643
0.165507 0.799381 -0.0450502
0.185629 0.799331 -0.0474074
0.114504 0.804707 -0.039221
0.134276 0.804632 -0.0433726
0.155027 0.804449 -0.0449266
0.175903 0.804298 -0.0456582
0.11377 0.864504 -0.0431571
0.113628 0.874453 -0.043877
0.123903 0.809718 -0.0425286
0.144571 0.809526 -0.0446
0.165424 0.809368 -0.0457115
0.185544 0.809314 -0.0481151
0.114365 0.814676 -0.0398403
0.114229 0.824653 -0.0404892
0.114089 0.834618 -0.0411544
0.113983 0.844576 -0.0418115
0.113876 0.854538 -0.0424622
0.134133 0.814602 -0.0440118
0.154929 0.814437 -0.0455773
0.175827 0.814293 -0.0463404
0.123769 0.81971 -0.0431338
0.14446 0.819521 -0.045244
0.165324 0.81935 -0.0463912
0.185443 0.81931 -0.0488786
0.12366 0.829702 -0.0436944
0.123509 0.839679 -0.0443638
0.123352 0.849676 -0.0450872
0.123181 0.859673 -0.0458355
0.123038 0.86968 -0.0465662
0.134015 0.824599 -0.044654
0.154839 0.824442 -0.0462533
0.175744 0.824293 -0.0470498
0.144331 0.829497 -0.0459373
0.165243 0.829358 -0.0470756
0.185344 0.829307 -0.049645
0.133907 0.834597 -0.0452623
0.133761 0.844587 -0.0459711
0.133632 0.854597 -0.0466703
0.13348 0.864608 -0.0474214
0.133315 0.874608 -0.048197
0.154726 0.834429 -0.0469598
0.175678 0.834301 -0.0477347
0.185259 0.839333 -0.0503853
0.144231 0.839502 -0.0465841
0.165163 0.839362 -0.0477684
0.144136 0.849521 -0.0472404
0.143995 0.859524 -0.0479658
0.143878 0.869538 -0.0486943
0.154633 0.844442 -0.0476313
0.17561 0.844311 -0.0484382
0.165086 0.849389 -0.0484584
0.185147 0.849349 -0.0511286
0.154526 0.854451 -0.0483476
0.175534 0.854336 -0.04914
0.154399 0.86447 -0.0490821
0.154288 0.874484 -0.0498307
0.164971 0.859392 -0.0492036
0.185048 0.859378 -0.0518994
0.175442 0.864349 -0.0498876
0.164869 0.869404 -0.0499454
0.184942 0.869407 -0.0526951
0.175348 0.874355 -0.0506556
0.103531 0.879531 -0.0419694
0.0840883 0.879884 -0.0362886
0.0935596 0.884669 -0.0396245
0.103401 0.889508 -0.0425678
0.0839458 0.889799 -0.0368858
0.0934688 0.894632 -0.040184
0.0838332 0.899735 -0.0374456
0.103317 0.899494 -0.0431078
0.0933861 0.904592 -0.0407622
0.0837536 0.909686 -0.0380066
0.103242 0.909491 -0.0436835
0.0740708 0.954722 -0.0369918
0.0741036 0.944698 -0.0364517
0.0933125 0.914545 -0.0413367
0.0836937 0.919629 -0.0385721
0.103178 0.919493 -0.0442791
0.0834891 0.949563 -0.0403797
0.0835884 0.939572 -0.0397726
0.0836417 0.929588 -0.0391603
0.0932585 0.924519 -0.0419165
0.0932155 0.93451 -0.0425259
0.0931667 0.944564 -0.0431537
0.0931498 0.954665 -0.0437149
0.10313 0.929501 -0.0448596
0.103099 0.939546 -0.0454556
0.103058 0.9496 -0.0461074
0.0741575 0.934747 -0.0358879
0.0741996 0.924851 -0.035351
0.0742427 0.914952 -0.034853
0.122856 0.879666 -0.0473421
0.143733 0.879546 -0.0494608
0.164762 0.879422 -0.0506803
0.184837 0.879438 -0.0535
0.113499 0.884396 -0.0445148
0.113411 0.894416 -0.0450711
0.113322 0.904436 -0.0456492
0.113253 0.91446 -0.0462117
0.1132 0.924499 -0.0468158
0.113158 0.934508 -0.047435
0.113121 0.944532 -0.0480507
0.113097 0.954616 -0.0487132
0.133151 0.884582 -0.048939
0.154173 0.884471 -0.0505394
0.175237 0.884345 -0.0513864
0.143639 0.889503 -0.0501496
0.164686 0.889395 -0.0513593
0.184744 0.889418 -0.0542405
0.122728 0.889593 -0.0480143
0.122643 0.899547 -0.0486049
0.122514 0.909505 -0.0492967
0.122434 0.919484 -0.0499524
0.122325 0.929463 -0.0506312
0.122267 0.939483 -0.0512967
0.122223 0.949535 -0.0519464
0.133075 0.894516 -0.0495944
0.15412 0.89443 -0.0511815
0.175196 0.894328 -0.0520168
0.143576 0.899436 -0.0507865
0.164646 0.899356 -0.0520005
[...]
POINT_DATA 12726
VECTORS alpha float
2.43273e-06 -1.62936e-08 1.20931e-07
2.36918e-06 -1.55405e-08 1.15575e-07
-8.80876e-08 1.80987e-05 -1.2134e-06
2.52821e-06 -1.51076e-08 9.15053e-08
2.27675e-06 -1.46263e-08 1.0889e-07
2.61945e-06 -1.29431e-08 5.23807e-08
2.97713e-06 -6.29356e-09 2.12166e-08
3.12208e-06 -3.30619e-09 2.46471e-08
3.21391e-06 -1.39471e-10 1.58899e-08
3.23782e-06 1.20589e-09 -1.43914e-08
-8.85054e-08 1.81537e-05 -1.22069e-06
2.46175e-06 -1.44843e-08 8.93911e-08
-4.5552e-08 1.69897e-05 -1.14622e-06
-8.39233e-09 1.53317e-05 -1.03265e-06
-1.99531e-08 1.34996e-05 -9.40521e-07
2.7044e-06 -1.09919e-08 1.72724e-08
2.77289e-06 -1.09935e-08 2.78571e-08
-5.33614e-10 8.87126e-06 -6.2944e-07
3.26037e-09 7.71751e-06 -5.48324e-07
2.83868e-06 -8.8779e-09 6.85007e-09
2.90186e-06 -6.38557e-09 -5.95817e-09
3.02636e-06 -5.28024e-09 6.91529e-09
1.56877e-09 5.70202e-06 -4.02567e-07
1.13165e-09 4.74724e-06 -3.36004e-07
7.75349e-10 3.79837e-06 -2.69738e-07
3.06706e-06 -3.04978e-09 -2.20652e-09
3.15845e-06 -2.76719e-09 1.10971e-08
1.45854e-09 2.85024e-06 -2.04944e-07
8.11114e-10 1.8998e-06 -1.36336e-07
3.21356e-10 9.49589e-07 -6.80832e-08
1.01232e-14 -1.49256e-11 1.07026e-12
3.18849e-06 -1.0431e-09 1.74463e-09
3.22908e-06 4.58571e-10 3.19807e-10
2.22582e-06 -1.40763e-08 1.03829e-07
2.30006e-06 -1.44748e-08 -1.27617e-08
-4.70586e-08 1.70443e-05 -1.15129e-06
2.55105e-06 -1.24985e-08 5.09785e-08
2.63342e-06 -1.06114e-08 1.87156e-08
-3.12567e-09 1.17482e-05 -8.21271e-07
2.90026e-06 -6.18581e-09 1.9877e-08
9.26324e-09 1.02003e-05 -7.07256e-07
2.94796e-06 -5.10926e-09 6.74877e-09
2.98801e-06 -3.17165e-09 -1.45105e-09
3.04069e-06 -3.40075e-09 2.30094e-08
3.07653e-06 -2.77224e-09 1.0377e-08
7.95868e-09 6.68017e-06 -4.76206e-07
3.10573e-06 -1.12298e-09 1.95679e-09
3.12994e-06 -3.45427e-10 1.49705e-08
3.14507e-06 2.96384e-10 2.72078e-10
3.15312e-06 9.46163e-10 -1.42918e-08
2.43275e-06 1.6293e-08 -1.20932e-07
2.36921e-06 1.554e-08 -1.15576e-07
2.52822e-06 1.50958e-08 -9.15028e-08
-8.80823e-08 -1.80985e-05 1.21315e-06
3.23783e-06 -1.23012e-09 1.44217e-08
3.21395e-06 1.1162e-10 -1.58585e-08
3.12213e-06 3.27876e-09 -2.46188e-08
2.97713e-06 6.28558e-09 -2.12018e-08
2.61945e-06 1.29332e-08 -5.23784e-08
2.27678e-06 1.46326e-08 -1.08904e-07
3.2212e-10 -9.49609e-07 6.80849e-08
8.12303e-10 -1.89981e-06 1.36342e-07
1.45977e-09 -2.85023e-06 2.0496e-07
3.22911e-06 -4.84672e-10 -2.89373e-10
3.18854e-06 1.01338e-09 -1.70649e-09
7.77332e-10 -3.79835e-06 2.69731e-07
1.13406e-09 -4.7472e-06 3.36001e-07
1.57147e-09 -5.70197e-06 4.02573e-07
3.15851e-06 2.74178e-09 -1.10659e-08
3.06709e-06 3.02063e-09 2.24738e-09
3.02638e-06 5.24918e-09 -6.87269e-09
3.26334e-09 -7.71739e-06 5.48236e-07
-5.29963e-10 -8.87114e-06 6.29341e-07
2.90184e-06 6.3749e-09 5.96964e-09
2.83866e-06 8.86437e-09 -6.83484e-09
2.77287e-06 1.09872e-08 -2.78613e-08
-1.99469e-08 -1.34995e-05 9.40346e-07
-8.38902e-09 -1.53315e-05 1.03246e-06
2.70438e-06 1.09837e-08 -1.72699e-08
-4.55476e-08 -1.69895e-05 1.146e-06
2.46177e-06 1.4473e-08 -8.93899e-08
-8.84992e-08 -1.81534e-05 1.22044e-06
3.15313e-06 -9.72197e-10 1.43263e-08
3.14509e-06 -3.2424e-10 -2.37831e-10
3.12998e-06 3.1586e-10 -1.49355e-08
3.10577e-06 1.09187e-09 -1.91635e-09
3.07658e-06 2.74578e-09 -1.03445e-08
3.04074e-06 3.37235e-09 -2.29792e-08
2.98804e-06 3.14134e-09 1.49169e-09
7.96093e-09 -6.68013e-06 4.76167e-07
2.94798e-06 5.07715e-09 -6.70651e-09
2.90026e-06 6.17774e-09 -1.98624e-08
9.2671e-09 -1.02002e-05 7.07135e-07
-3.12104e-09 -1.1748e-05 8.21142e-07
-4.70536e-08 -1.7044e-05 1.15106e-06
2.63342e-06 1.06036e-08 -1.87142e-08
2.55105e-06 1.2489e-08 -5.09775e-08
2.22585e-06 1.40833e-08 -1.03843e-07
2.3001e-06 1.44803e-08 1.27554e-08
-7.11464e-08 1.8207e-05 -1.21297e-06
2.36671e-06 -1.50125e-08 -1.26244e-08
-6.9569e-08 1.81465e-05 -1.22464e-06
2.417e-06 -1.54445e-08 -1.35143e-08
-7.0414e-08 1.8085e-05 -1.23065e-06
2.50834e-06 -1.57867e-08 -2.4865e-07
2.45078e-06 -1.56923e-08 -2.37575e-07
-7.1437e-08 1.80205e-05 -1.24085e-06
-7.24987e-08 1.79547e-05 -1.24466e-06
-1.2265e-07 1.50742e-05 -9.56412e-07
-5.5533e-08 1.77491e-05 -1.18417e-06
2.81932e-06 -1.8838e-08 -3.27726e-08
2.75247e-06 -1.83194e-08 -2.76487e-08
-6.16604e-08 1.78177e-05 -1.21885e-06
-9.46027e-08 1.68183e-05 -1.10064e-06
2.66712e-06 -1.7235e-08 -1.37702e-07
2.68871e-06 -1.79108e-08 -2.26488e-08
-8.99038e-08 1.68817e-05 -1.12007e-06
-6.72314e-08 1.78857e-05 -1.24067e-06
2.60361e-06 -1.68306e-08 -1.29582e-07
2.63188e-06 -1.74488e-08 -1.95756e-08
-9.65189e-08 1.69474e-05 -1.12929e-06
2.54613e-06 -1.65487e-08 -1.2239e-07
-1.19447e-07 1.51342e-05 -9.55602e-07
2.55913e-06 -1.68364e-08 -1.70139e-08
-1.01383e-07 1.70131e-05 -1.14116e-06
2.49196e-06 -1.61147e-08 -1.1643e-07
-1.28674e-07 1.51978e-05 -9.71696e-07
2.48704e-06 -1.61484e-08 -1.48457e-08
-1.05634e-07 1.70777e-05 -1.15176e-06
2.42378e-06 -1.55869e-08 -1.10423e-07
-1.02305e-07 1.7139e-05 -1.14506e-06
2.3974e-06 -1.54588e-08 -2.26929e-07
-1.34329e-07 1.52604e-05 -9.75875e-07
2.35576e-06 -1.49682e-08 -1.05082e-07
-1.05811e-07 1.71992e-05 -1.14763e-06
2.34623e-06 -1.49299e-08 -2.17904e-07
-1.38175e-07 1.53197e-05 -9.89653e-07
2.29019e-06 -1.44507e-08 -1.0062e-07
-1.07777e-07 1.72582e-05 -1.13306e-06
-1.36767e-07 1.53778e-05 -9.83756e-07
2.2835e-06 -1.43514e-08 -2.09057e-07
2.81852e-06 -1.86502e-08 -5.69243e-07
2.74631e-06 -1.8159e-08 -5.4816e-07
2.67883e-06 -1.7634e-08 -5.28307e-07
2.61306e-06 -1.72562e-08 -5.08923e-07
-1.25493e-07 1.50144e-05 -9.67316e-07
-5.6145e-08 1.76817e-05 -1.18253e-06
-9.10959e-08 1.67505e-05 -1.10757e-06
2.56312e-06 -1.59842e-08 -2.595e-07
2.72594e-06 -1.7702e-08 -1.44e-07
2.88467e-06 -1.94532e-08 -3.84224e-08
-1.08069e-07 1.30394e-05 -8.15618e-07
-1.12309e-07 1.31152e-05 -8.18686e-07
-1.18205e-07 1.31903e-05 -8.20544e-07
-1.22663e-07 1.32624e-05 -8.28126e-07
-1.26839e-07 1.33294e-05 -8.3527e-07
-1.28537e-07 1.33944e-05 -8.42303e-07
-1.21844e-07 1.49496e-05 -9.94266e-07
-8.36335e-08 1.66809e-05 -1.13022e-06
-4.53371e-08 1.76084e-05 -1.20303e-06
2.61932e-06 -1.62927e-08 -2.71058e-07
2.7857e-06 -1.8392e-08 -1.50537e-07
3.12252e-06 -2.39057e-08 1.38457e-07
2.94851e-06 -2.0311e-08 -4.70268e-08
-1.2566e-07 1.48832e-05 -1.02001e-06
-8.08358e-08 1.66099e-05 -1.15185e-06
-4.07097e-08 1.75331e-05 -1.227e-06
2.76056e-06 -1.75561e-08 -2.89712e-07
2.83354e-06 -1.8508e-08 -3.01315e-07
2.90649e-06 -1.86958e-08 -3.13973e-07
2.98131e-06 -1.88887e-08 -3.26934e-07
3.05999e-06 -1.90487e-08 -3.42392e-07
2.93998e-06 -1.98524e-08 -1.61828e-07
3.11705e-06 -2.18907e-08 -4.87569e-08
3.30359e-06 -2.61973e-08 1.45864e-07
-1.30368e-07 1.48099e-05 -1.03927e-06
-7.98264e-08 1.65329e-05 -1.17038e-06
-3.68947e-08 1.7452e-05 -1.25474e-06
-1.30735e-07 1.47407e-05 -1.05013e-06
-1.30894e-07 1.46726e-05 -1.04821e-06
-1.35368e-07 1.46025e-05 -1.05282e-06
-1.34822e-07 1.45312e-05 -1.05739e-06
3.01911e-06 -2.09128e-08 -1.68122e-07
3.2001e-06 -2.30319e-08 -5.16348e-08
3.3951e-06 -2.79988e-08 1.50523e-07
-7.54627e-08 1.64611e-05 -1.18918e-06
-2.54397e-08 1.73769e-05 -1.26695e-06
3.09695e-06 -2.12838e-08 -1.75403e-07
3.28149e-06 -2.3425e-08 -5.49375e-08
3.48399e-06 -2.88597e-08 1.53455e-07
-6.64187e-08 1.63868e-05 -1.19551e-06
-1.94818e-08 1.73038e-05 -1.27074e-06
3.17639e-06 -2.16834e-08 -1.82852e-07
3.25977e-06 -2.19641e-08 -1.92723e-07
3.36454e-06 -2.38605e-08 -5.81563e-08
3.57471e-06 -2.97135e-08 1.57149e-07
-7.14977e-08 1.63142e-05 -1.2057e-06
-1.86147e-08 1.72299e-05 -1.27864e-06
3.66986e-06 -3.05632e-08 1.61563e-07
-6.98297e-08 1.62399e-05 -1.21065e-06
3.45127e-06 -2.41083e-08 -6.32453e-08
-1.58945e-08 1.71555e-05 -1.28264e-06
-1.29896e-07 1.3454e-05 -8.45192e-07
2.89261e-06 -1.9236e-08 -5.91139e-07
2.97387e-06 -1.95603e-08 -6.145e-07
3.06197e-06 -2.03932e-08 -6.38071e-07
3.1598e-06 -2.06177e-08 -6.62883e-07
3.26081e-06 -2.07608e-08 -6.90596e-07
3.37514e-06 -2.0053e-08 -7.24934e-07
3.49149e-06 -1.8602e-08 -7.63299e-07
-6.86151e-08 1.31984e-05 -8.51733e-07
-6.3006e-08 1.30915e-05 -8.677e-07
3.62225e-06 -1.74585e-08 -8.06668e-07
-5.94764e-08 1.3293e-05 -8.52331e-07
-5.85602e-08 1.3384e-05 -8.48886e-07
-6.51553e-08 1.34697e-05 -8.44789e-07
-7.79931e-08 1.35551e-05 -8.38693e-07
3.29263e-06 -2.0312e-08 -1.03944e-06
-7.85126e-08 1.36348e-05 -8.30458e-07
3.18136e-06 -1.99965e-08 -9.9439e-07
-8.86442e-08 1.37145e-05 -8.15946e-07
3.14059e-06 -1.91491e-08 -3.57154e-07
3.34439e-06 -2.20798e-08 -2.02234e-07
3.53858e-06 -2.42139e-08 -6.82575e-08
3.76381e-06 -3.05896e-08 1.61709e-07
-1.02176e-07 1.29618e-05 -8.21479e-07
-1.38158e-07 1.44579e-05 -1.07187e-06
-7.04023e-08 1.6163e-05 -1.22435e-06
-1.54894e-08 1.70787e-05 -1.29841e-06
-8.67243e-08 1.24725e-05 -8.75613e-07
-8.39053e-08 1.23784e-05 -8.67611e-07
3.22952e-06 -1.91862e-08 -3.72631e-07
3.4378e-06 -2.20942e-08 -2.12153e-07
3.63472e-06 -2.42478e-08 -7.34475e-08
3.86798e-06 -3.06016e-08 1.67246e-07
-9.19584e-08 1.28826e-05 -8.34229e-07
-8.56702e-08 1.28027e-05 -8.42005e-07
-7.88827e-08 1.27229e-05 -8.52142e-07
-8.09576e-08 1.26454e-05 -8.66065e-07
-8.11279e-08 1.25605e-05 -8.7271e-07
-1.32359e-07 1.43821e-05 -1.08317e-06
-6.8988e-08 1.60853e-05 -1.23577e-06
-1.62612e-08 1.70013e-05 -1.31117e-06
3.32616e-06 -1.87966e-08 -3.88383e-07
3.53946e-06 -2.16313e-08 -2.21863e-07
3.7407e-06 -2.38549e-08 -7.64567e-08
3.98193e-06 -3.0577e-08 1.7882e-07
3.43189e-06 -1.80082e-08 -4.06945e-07
3.54652e-06 -1.75665e-08 -4.23993e-07
3.6792e-06 -1.77418e-08 -4.42792e-07
3.81864e-06 -1.79195e-08 -4.61644e-07
3.97438e-06 -1.85813e-08 -4.86256e-07
-1.24478e-07 1.43081e-05 -1.07783e-06
-5.87537e-08 1.60073e-05 -1.22745e-06
7.00533e-09 1.69201e-05 -1.29565e-06
3.65437e-06 -2.09613e-08 -2.30606e-07
3.85829e-06 -2.30863e-08 -7.95683e-08
4.10847e-06 -2.99424e-08 1.86289e-07
-1.23978e-07 1.42342e-05 -1.07395e-06
-1.06896e-07 1.41499e-05 -1.07749e-06
-9.80737e-08 1.40609e-05 -1.07845e-06
-9.06864e-08 1.39639e-05 -1.07602e-06
-7.53296e-08 1.38585e-05 -1.07135e-06
-4.51183e-08 1.5926e-05 -1.21544e-06
1.34332e-08 1.68394e-05 -1.28472e-06
4.24607e-06 -3.00114e-08 1.93956e-07
3.77407e-06 -2.00624e-08 -2.42717e-07
3.98515e-06 -2.25989e-08 -8.34999e-08
3.91435e-06 -2.03957e-08 -2.58047e-07
4.06695e-06 -2.05219e-08 -2.69687e-07
4.24063e-06 -2.14198e-08 -2.85451e-07
-4.93573e-08 1.58468e-05 -1.20068e-06
1.58103e-08 1.67567e-05 -1.27812e-06
4.13433e-06 -2.25366e-08 -9.0758e-08
4.41278e-06 -2.96055e-08 2.02526e-07
-5.33944e-08 1.57586e-05 -1.19603e-06
1.02237e-08 1.66711e-05 -1.26828e-06
-4.30954e-08 1.56618e-05 -1.20051e-06
-3.61499e-08 1.55555e-05 -1.20397e-06
4.29848e-06 -2.26422e-08 -9.51563e-08
4.593e-06 -3.00859e-08 2.12482e-07
1.0437e-08 1.65775e-05 -1.27368e-06
4.48847e-06 -2.38476e-08 -1.02755e-07
4.80615e-06 -3.12343e-08 2.23494e-07
-1.27243e-09 1.64755e-05 -1.28519e-06
3.80367e-06 -1.74446e-08 -8.60348e-07
3.44474e-06 -2.06266e-08 -1.09816e-06
-6.03889e-08 1.29714e-05 -8.85202e-07
3.95377e-06 -1.54514e-08 -9.06816e-07
3.57134e-06 -1.9036e-08 -1.14661e-06
-5.37045e-08 1.28493e-05 -8.86524e-07
3.67323e-06 -1.51135e-08 -1.19144e-06
4.07466e-06 -1.23389e-08 -9.45499e-07
-4.79042e-08 1.27246e-05 -8.86696e-07
3.77387e-06 -1.15924e-08 -1.23811e-06
4.19731e-06 -9.0398e-09 -9.85558e-07
-4.72971e-08 1.79738e-05 -1.08529e-06
-6.41099e-08 1.80735e-05 -1.12688e-06
-4.12481e-08 1.25971e-05 -8.80495e-07
3.85455e-06 -8.03801e-09 -1.27899e-06
4.29455e-06 -6.30237e-09 -1.01911e-06
3.94634e-06 -1.06933e-09 -1.35637e-06
3.94174e-06 -3.65119e-09 -1.3394e-06
3.91735e-06 -5.58529e-09 -1.31573e-06
-3.14503e-08 1.24651e-05 -8.65284e-07
-2.04068e-08 1.23351e-05 -8.41811e-07
-1.6272e-08 1.22156e-05 -8.15187e-07
-9.24952e-09 1.21125e-05 -7.9109e-07
4.36658e-06 -2.0073e-09 -1.04641e-06
4.3859e-06 2.27776e-09 -1.06241e-06
4.37274e-06 4.53602e-09 -1.07314e-06
-7.71301e-08 1.81937e-05 -1.15315e-06
-8.57869e-08 1.83269e-05 -1.15224e-06
-9.21532e-08 1.84663e-05 -1.13361e-06
4.19402e-06 -1.96329e-08 -5.17223e-07
4.48802e-06 -2.29801e-08 -3.04719e-07
4.75895e-06 -2.55523e-08 -1.13577e-07
5.11234e-06 -3.34304e-08 2.39058e-07
-7.2875e-08 1.22672e-05 -8.65933e-07
-6.37048e-08 1.2142e-05 -8.76454e-07
-5.39829e-08 1.20158e-05 -8.85334e-07
-3.92368e-08 1.18818e-05 -8.88771e-07
-2.78278e-08 1.17412e-05 -8.79174e-07
-1.21088e-08 1.15954e-05 -8.67198e-07
1.37058e-08 1.14502e-05 -8.33972e-07
2.00957e-08 1.13224e-05 -8.02873e-07
-5.33796e-08 1.37417e-05 -1.07574e-06
-1.99469e-08 1.54374e-05 -1.20386e-06
2.93831e-09 1.63614e-05 -1.29686e-06
4.69894e-06 -2.1139e-08 -3.21763e-07
4.99705e-06 -2.40388e-08 -1.19494e-07
5.38757e-06 -3.25139e-08 2.55103e-07
4.37908e-06 -1.67797e-08 -5.44926e-07
4.52801e-06 -1.28147e-08 -5.67366e-07
4.68646e-06 -9.77109e-09 -5.86195e-07
4.81074e-06 -6.22958e-09 -6.0591e-07
4.90576e-06 -2.41549e-09 -6.1882e-07
4.92874e-06 9.4038e-10 -6.28421e-07
4.90307e-06 4.06909e-09 -6.33936e-07
-5.22106e-08 1.36263e-05 -1.07962e-06
-1.59981e-08 1.53194e-05 -1.21418e-06
1.36613e-08 1.62443e-05 -1.30951e-06
4.86946e-06 -1.54958e-08 -3.33305e-07
5.19196e-06 -1.96301e-08 -1.19879e-07
5.61247e-06 -2.88571e-08 2.67556e-07
-5.6267e-08 1.3506e-05 -1.08822e-06
-1.83764e-08 1.51965e-05 -1.23054e-06
1.82483e-08 1.61217e-05 -1.32875e-06
-5.21934e-08 1.33682e-05 -1.1002e-06
-4.78326e-08 1.32251e-05 -1.09427e-06
-3.89874e-08 1.30719e-05 -1.08532e-06
-1.87507e-08 1.29138e-05 -1.06167e-06
1.65292e-10 1.27701e-05 -1.03407e-06
5.0531e-06 -1.1233e-08 -3.449e-07
5.40539e-06 -1.50512e-08 -1.23851e-07
5.86809e-06 -2.6063e-08 2.81333e-07
5.20289e-06 -8.22418e-09 -3.57127e-07
5.31433e-06 -5.279e-09 -3.67177e-07
5.34476e-06 -2.99378e-09 -3.74745e-07
5.31168e-06 -1.00194e-09 -3.80941e-07
-1.93047e-08 1.50626e-05 -1.24323e-06
2.09833e-08 1.59923e-05 -1.3371e-06
5.58512e-06 -1.1563e-08 -1.26947e-07
6.09062e-06 -2.31017e-08 2.92905e-07
-2.08602e-08 1.49204e-05 -1.23924e-06
1.88305e-08 1.58453e-05 -1.34622e-06
-1.39556e-08 1.47573e-05 -1.23882e-06
6.08499e-09 1.45845e-05 -1.21865e-06
2.31414e-08 1.4421e-05 -1.1947e-06
5.72287e-06 -7.23562e-09 -1.29091e-07
6.26607e-06 -1.93591e-08 2.98438e-07
1.86937e-08 1.56879e-05 -1.33721e-06
5.76902e-06 -5.71986e-09 -1.3449e-07
5.73765e-06 -5.01282e-09 -1.42254e-07
6.3441e-06 -1.75377e-08 2.98237e-07
2.9691e-08 1.55139e-05 -1.31346e-06
4.59351e-08 1.53356e-05 -1.29104e-06
6.32767e-06 -1.74312e-08 2.85705e-07
-8.44067e-08 1.80428e-05 -1.21307e-06
-4.09258e-08 1.69363e-05 -1.13357e-06
-3.23155e-09 1.52799e-05 -1.02758e-06
-1.59274e-08 1.34528e-05 -9.3845e-07
2.50484e-06 -1.69604e-08 1.27983e-07
2.55874e-06 -1.75594e-08 1.31995e-07
2.63311e-06 -1.8253e-08 1.35039e-07
2.70992e-06 -1.9018e-08 1.35968e-07
2.78756e-06 -1.97125e-08 1.36602e-07
2.84762e-06 -2.02818e-08 1.33681e-07
2.91493e-06 -2.09419e-08 1.34578e-07
2.98719e-06 -2.17469e-08 1.36719e-07
2.60455e-06 -1.58411e-08 9.41402e-08
2.69794e-06 -1.3465e-08 5.38628e-08
2.7845e-06 -1.13855e-08 1.79734e-08
-8.14224e-08 1.79847e-05 -1.21465e-06
-3.60869e-08 1.68804e-05 -1.129e-06
-5.82948e-11 1.52269e-05 -1.02399e-06
-1.25589e-08 1.34043e-05 -9.37133e-07
2.66267e-06 -1.6589e-08 9.45685e-08
2.7578e-06 -1.41194e-08 5.44018e-08
2.84628e-06 -1.1801e-08 1.70776e-08
-7.72216e-08 1.79255e-05 -1.21255e-06
-3.19504e-08 1.68238e-05 -1.12864e-06
9.89052e-10 1.51726e-05 -1.02131e-06
-1.00058e-08 1.33549e-05 -9.36331e-07
-7.26623e-08 1.78629e-05 -1.21653e-06
-6.58373e-08 1.77972e-05 -1.21929e-06
-6.18044e-08 1.77321e-05 -1.21877e-06
-5.8598e-08 1.76667e-05 -1.217e-06
-5.75813e-08 1.75999e-05 -1.21956e-06
2.74224e-06 -1.75152e-08 9.58031e-08
2.84038e-06 -1.49109e-08 5.40714e-08
2.93103e-06 -1.23831e-08 1.59105e-08
-2.81205e-08 1.67661e-05 -1.13506e-06
2.7189e-09 1.51186e-05 -1.02456e-06
-6.59888e-09 1.33058e-05 -9.37923e-07
2.82348e-06 -1.83057e-08 9.70585e-08
2.92519e-06 -1.57779e-08 5.29314e-08
3.01808e-06 -1.30109e-08 1.37147e-08
-2.17435e-08 1.67059e-05 -1.14126e-06
-4.04475e-09 1.32549e-05 -9.37825e-07
6.70571e-09 1.50621e-05 -1.02705e-06
2.9055e-06 -1.89916e-08 9.8219e-08
2.96806e-06 -1.94936e-08 9.80645e-08
3.03828e-06 -1.99684e-08 9.77136e-08
3.11278e-06 -2.06583e-08 1.00315e-07
3.01188e-06 -1.65952e-08 5.15817e-08
3.10737e-06 -1.38279e-08 1.54117e-08
-1.69999e-08 1.66463e-05 -1.14973e-06
1.03773e-08 1.50076e-05 -1.03357e-06
2.45348e-10 1.32021e-05 -9.39407e-07
3.07962e-06 -1.73224e-08 5.10813e-08
3.17705e-06 -1.45547e-08 1.74672e-08
-1.26914e-08 1.65863e-05 -1.15209e-06
1.46881e-08 1.4953e-05 -1.04037e-06
3.00782e-09 1.31516e-05 -9.41491e-07
-7.83751e-09 1.65223e-05 -1.15523e-06
3.15593e-06 -1.80563e-08 4.86947e-08
3.25558e-06 -1.51455e-08 1.83086e-08
1.8976e-08 1.48968e-05 -1.04549e-06
5.48439e-09 1.30995e-05 -9.43508e-07
3.23617e-06 -1.89443e-08 4.86117e-08
3.33746e-06 -1.57558e-08 1.7528e-08
9.9128e-10 8.8379e-06 -6.28023e-07
-3.18542e-10 1.1707e-05 -8.20243e-07
1.07033e-08 1.01632e-05 -7.05852e-07
4.97501e-09 7.68679e-06 -5.48962e-07
2.8541e-06 -1.14182e-08 2.874e-08
2.92134e-06 -9.27377e-09 7.81386e-09
2.98555e-06 -6.60524e-09 -5.20543e-09
3.06227e-06 -6.38771e-09 2.25671e-08
2.94247e-09 8.80256e-06 -6.27065e-07
1.93392e-09 1.16633e-05 -8.19212e-07
1.12782e-08 1.01239e-05 -7.06117e-07
6.28316e-09 7.65536e-06 -5.48183e-07
2.91656e-06 -1.17392e-08 2.97946e-08
3.0021e-06 -1.21652e-08 3.13246e-08
3.09036e-06 -1.27213e-08 3.2465e-08
3.18061e-06 -1.31619e-08 3.39657e-08
3.2508e-06 -1.33872e-08 3.47564e-08
3.33096e-06 -1.36105e-08 3.4825e-08
3.41368e-06 -1.39374e-08 3.58631e-08
3.05106e-06 -6.82279e-09 -4.83906e-09
3.12918e-06 -6.38398e-09 2.38273e-08
2.9854e-06 -9.71548e-09 8.1809e-09
5.80057e-09 8.76542e-06 -6.2789e-07
7.66147e-09 7.62322e-06 -5.48026e-07
5.77075e-09 1.16176e-05 -8.18929e-07
1.32498e-08 1.00825e-05 -7.08338e-07
3.21984e-06 -6.46851e-09 2.45587e-08
3.07335e-06 -1.02426e-08 8.10563e-09
3.13973e-06 -7.18998e-09 -5.27304e-09
8.66299e-09 8.72978e-06 -6.27394e-07
9.63523e-09 7.5915e-06 -5.47261e-07
8.48616e-09 1.15734e-05 -8.18489e-07
1.45246e-08 1.00429e-05 -7.12454e-07
3.31425e-06 -6.56746e-09 2.50939e-08
3.16463e-06 -1.08928e-08 8.0778e-09
3.23261e-06 -7.54394e-09 -5.3767e-09
1.00531e-08 1.15276e-05 -8.19346e-07
1.11045e-08 1.14815e-05 -8.21689e-07
1.24569e-08 1.14358e-05 -8.25085e-07
1.52908e-08 1.13872e-05 -8.28629e-07
1.06561e-08 8.69284e-06 -6.25661e-07
1.56583e-08 1.00019e-05 -7.14125e-07
1.149e-08 7.55764e-06 -5.4682e-07
3.25812e-06 -1.15519e-08 7.47564e-09
3.32778e-06 -7.84572e-09 -6.21698e-09
3.41045e-06 -6.65364e-09 2.51247e-08
1.25096e-08 8.65572e-06 -6.25156e-07
1.69003e-08 9.96073e-06 -7.15867e-07
1.25345e-08 7.52469e-06 -5.46142e-07
3.33129e-06 -1.20322e-08 6.34786e-09
3.40236e-06 -8.09648e-09 -7.34749e-09
3.4864e-06 -6.56949e-09 2.49303e-08
1.5053e-08 8.61768e-06 -6.26498e-07
1.33025e-08 7.49194e-06 -5.46165e-07
3.49829e-06 -1.24788e-08 7.96585e-09
3.41391e-06 -1.2294e-08 6.15786e-09
3.57422e-06 -6.50888e-09 2.44942e-08
1.66197e-08 8.57969e-06 -6.26131e-07
1.40527e-08 7.45823e-06 -5.4535e-07
3.66379e-06 -6.52086e-09 2.45192e-08
3.5752e-06 -8.83052e-09 -1.01106e-08
2.05507e-08 9.87628e-06 -7.20768e-07
3.48774e-06 -8.44333e-09 -8.72159e-09
1.92044e-08 9.91848e-06 -7.19816e-07
3.05464e-06 -2.26844e-08 1.37424e-07
-6.03001e-08 1.75321e-05 -1.22729e-06
-5.19602e-09 1.64569e-05 -1.1601e-06
2.48601e-08 1.48386e-05 -1.04507e-06
8.04973e-09 1.30472e-05 -9.45397e-07
3.30839e-06 -1.95965e-08 4.9447e-08
3.41502e-06 -1.66593e-08 1.91024e-08
3.18256e-06 -2.14741e-08 1.04798e-07
-5.746e-08 1.74601e-05 -1.23078e-06
5.1683e-09 1.63863e-05 -1.16219e-06
3.32528e-08 1.47794e-05 -1.04333e-06
1.52882e-08 1.29918e-05 -9.45014e-07
-5.68568e-08 1.73867e-05 -1.24061e-06
-5.14432e-08 1.73083e-05 -1.25322e-06
-3.8124e-08 1.72328e-05 -1.26217e-06
-3.14436e-08 1.71581e-05 -1.2625e-06
-2.8038e-08 1.70829e-05 -1.26373e-06
-2.09538e-08 1.70079e-05 -1.26002e-06
3.252e-06 -2.24513e-08 1.06637e-07
3.37875e-06 -2.03616e-08 5.14275e-08
3.4911e-06 -1.76933e-08 1.92174e-08
4.16569e-09 1.63165e-05 -1.16664e-06
1.7929e-08 1.29344e-05 -9.50214e-07
3.9342e-08 1.4715e-05 -1.04666e-06
3.4387e-06 -2.43533e-08 1.10397e-07
3.57153e-06 -2.21375e-08 5.59694e-08
3.69384e-06 -1.96358e-08 1.84868e-08
4.48888e-09 1.62414e-05 -1.17007e-06
4.15252e-08 1.46451e-05 -1.04731e-06
1.89742e-08 1.28736e-05 -9.56098e-07