# vtk DataFile Version 3.0
vtk output
ASCII
DATASET POLYDATA
POINTS 40400 float
0.364957 1.78754 -0.109216
0.354447 1.78262 -0.108749
0.343856 1.78769 -0.108887
0.365009 1.77756 -0.108558
0.333245 1.78279 -0.108505
0.322662 1.78788 -0.108485
0.448191 1.78718 -0.110228
0.468877 1.78714 -0.110193
0.417046 1.78228 -0.109859
0.406653 1.78732 -0.10999
0.427424 1.78724 -0.110074
0.458528 1.78216 -0.110057
0.489524 1.78713 -0.110098
0.396365 1.78238 -0.109512
0.38594 1.78742 -0.109603
0.448207 1.7772 -0.109574
0.468883 1.77716 -0.109538
0.489532 1.77715 -0.109441
0.437813 1.78223 -0.109663
0.479201 1.78215 -0.109773
0.417082 1.7723 -0.109202
0.406692 1.77734 -0.109351
0.427453 1.77726 -0.109416
0.375432 1.78249 -0.109041
0.458543 1.77218 -0.109398
0.479216 1.77217 -0.109114
0.499827 1.77215 -0.109228
0.40673 1.76736 -0.108709
0.427487 1.76729 -0.108755
0.39641 1.7724 -0.108886
0.386 1.77744 -0.108979
0.458558 1.7622 -0.108744
0.448227 1.76722 -0.108915
0.468888 1.76719 -0.108879
0.489525 1.76717 -0.108786
0.437844 1.77225 -0.109002
0.417122 1.76232 -0.108547
0.386046 1.76746 -0.108359
0.375498 1.77251 -0.108466
0.437875 1.76227 -0.108347
0.479213 1.76219 -0.108456
0.354504 1.77264 -0.108102
0.34393 1.77771 -0.108239
0.406765 1.75738 -0.10808
0.427515 1.75731 -0.108096
0.39646 1.76242 -0.108242
0.458568 1.75223 -0.108082
0.448241 1.75724 -0.108255
0.468892 1.75721 -0.108217
0.48952 1.75719 -0.108125
0.301557 1.7881 -0.107787
0.344009 1.76773 -0.107617
0.365078 1.76758 -0.107909
0.333334 1.7728 -0.107884
0.312288 1.783 -0.107742
0.322761 1.7779 -0.107868
0.417153 1.75234 -0.107891
0.396498 1.75244 -0.107602
0.386099 1.75748 -0.107725
0.375573 1.76253 -0.107842
0.448255 1.74727 -0.107597
0.437898 1.7523 -0.107692
0.479202 1.75221 -0.107794
0.499791 1.75219 -0.107921
0.245181 1.85371 -0.109933
0.233741 1.85887 -0.110055
0.245355 1.84373 -0.109287
0.23393 1.84888 -0.109416
0.222373 1.85405 -0.109363
0.210339 1.85924 -0.109286
0.245537 1.83374 -0.108645
0.234126 1.83889 -0.108787
0.222592 1.84407 -0.108738
0.210567 1.84925 -0.108726
0.198025 1.85444 -0.108417
0.234258 1.8289 -0.108223
0.222783 1.83407 -0.108169
0.18531 1.85964 -0.10814
0.245716 1.82375 -0.108005
0.210812 1.83925 -0.108111
0.198271 1.84445 -0.107897
0.171872 1.88484 -0.109162
0.171505 1.89483 -0.109772
0.171117 1.90482 -0.1104
0.17075 1.91482 -0.111018
0.158431 1.91005 -0.109399
0.158794 1.90005 -0.108861
0.172274 1.87485 -0.108491
0.15917 1.89006 -0.108301
0.172634 1.86485 -0.107904
0.159577 1.88006 -0.107718
0.145753 1.91527 -0.107693
0.244997 1.8637 -0.110597
0.222138 1.86404 -0.110004
0.197794 1.86443 -0.108947
0.233516 1.86886 -0.110722
0.210083 1.86922 -0.109901
0.185051 1.86963 -0.108651
0.183754 1.9096 -0.111177
0.184727 1.87963 -0.109292
0.244825 1.87368 -0.111254
0.233305 1.87885 -0.111399
0.221892 1.87403 -0.110661
0.209828 1.87921 -0.110532
0.197517 1.87442 -0.109532
0.184388 1.88962 -0.109942
0.184074 1.89961 -0.110558
0.244664 1.88367 -0.111904
0.221672 1.88402 -0.111308
0.197254 1.88441 -0.110094
0.233118 1.88883 -0.112056
0.209586 1.8892 -0.111127
0.2445 1.89366 -0.112519
0.221469 1.89401 -0.111906
0.197005 1.89441 -0.110612
0.232922 1.89882 -0.112695
0.209363 1.89919 -0.111685
0.232739 1.9088 -0.113309
0.244326 1.90364 -0.11317
0.22124 1.90399 -0.112548
0.196719 1.9044 -0.111213
0.244152 1.91363 -0.11381
0.221028 1.91398 -0.113167
0.209131 1.90918 -0.112283
0.196466 1.91439 -0.111763
0.234456 1.81892 -0.107581
0.222989 1.82408 -0.107545
0.185624 1.84965 -0.107557
0.157874 1.92004 -0.110106
0.170366 1.92481 -0.111639
0.14526 1.92526 -0.108233
0.157448 1.93003 -0.110683
0.169927 1.9348 -0.112356
0.144849 1.93526 -0.108772
0.156965 1.94002 -0.111364
0.169513 1.9448 -0.113038
0.18236 1.94957 -0.113864
0.144206 1.94525 -0.109489
0.16919 1.95478 -0.113617
0.1565 1.95001 -0.112024
0.182099 1.95956 -0.11441
0.15613 1.96001 -0.112568
0.143769 1.95524 -0.109998
0.168903 1.96478 -0.114155
0.143275 1.96524 -0.11057
0.18182 1.96955 -0.114992
0.155733 1.97 -0.113145
0.168574 1.97476 -0.114738
0.142848 1.97523 -0.111025
0.181533 1.97953 -0.11556
0.155392 1.97999 -0.113652
0.130403 1.98047 -0.108192
0.130998 1.97048 -0.107564
0.183392 1.91959 -0.111851
0.23256 1.91879 -0.113908
0.208885 1.91917 -0.112892
0.243982 1.92361 -0.114444
0.182649 1.93958 -0.113244
0.22079 1.92397 -0.1138
0.19616 1.92438 -0.112391
0.23235 1.92878 -0.114537
0.183038 1.92958 -0.11251
0.208644 1.92916 -0.11346
0.243794 1.9336 -0.115072
0.220577 1.93395 -0.114432
0.195876 1.93436 -0.113009
0.232152 1.93876 -0.115177
0.208406 1.93915 -0.114077
0.243625 1.94358 -0.115699
0.220386 1.94394 -0.115013
0.195574 1.94435 -0.11368
0.231967 1.94875 -0.115785
0.20816 1.94913 -0.114682
0.24347 1.95356 -0.116284
0.220194 1.95393 -0.115597
0.195308 1.95434 -0.114305
0.231778 1.95873 -0.116372
0.207937 1.95912 -0.115246
0.19505 1.96433 -0.11487
0.243287 1.96355 -0.116867
0.219989 1.96391 -0.11616
0.231583 1.96872 -0.116948
0.207726 1.96911 -0.115768
0.194829 1.97431 -0.11542
0.243132 1.97354 -0.117453
0.219781 1.9739 -0.116745
0.231407 1.9787 -0.117529
0.207489 1.9791 -0.116349
0.168239 1.98475 -0.1153
0.142407 1.98522 -0.111567
0.181221 1.98952 -0.116139
0.155039 1.98998 -0.114185
0.129977 1.99047 -0.108648
0.167899 1.99474 -0.115845
0.141942 1.99522 -0.112058
0.180929 1.99951 -0.116688
0.15466 1.99997 -0.114721
0.129409 2.00046 -0.109234
0.16761 2.00473 -0.116346
0.141366 2.00521 -0.112677
0.180641 2.0095 -0.117225
0.154288 2.00996 -0.115215
0.128738 2.01045 -0.109869
0.167275 2.01472 -0.11688
0.140902 2.0152 -0.113247
0.180344 2.01949 -0.117764
0.153924 2.01995 -0.115739
0.128163 2.02044 -0.110424
0.166992 2.02471 -0.117389
0.140535 2.02519 -0.113712
0.1801 2.02948 -0.118289
0.15358 2.02994 -0.11628
0.127586 2.03044 -0.11095
0.166696 2.0347 -0.117938
0.140106 2.03518 -0.114297
0.127209 2.04043 -0.11141
0.179795 2.03946 -0.118876
0.15331 2.03993 -0.116739
0.166426 2.04469 -0.118437
0.139744 2.04517 -0.114824
0.194593 1.9843 -0.115963
0.242972 1.98352 -0.118034
0.21962 1.98389 -0.117266
0.231234 1.98869 -0.118103
0.207253 1.98908 -0.116896
0.194328 1.99429 -0.116539
0.242781 1.9935 -0.118646
0.21941 1.99388 -0.117815
0.231041 1.99867 -0.118684
0.207045 1.99908 -0.117358
0.194074 2.00428 -0.117094
0.242584 2.00349 -0.119268
0.219197 2.00386 -0.118389
0.230839 2.00866 -0.119279
0.206799 2.00906 -0.117926
0.193804 2.01427 -0.117652
0.242405 2.01347 -0.119874
0.21898 2.01385 -0.118963
0.230636 2.01864 -0.119871
0.206554 2.01905 -0.118477
0.19357 2.02426 -0.118177
0.242255 2.02345 -0.120456
0.218776 2.02383 -0.119512
0.230497 2.02863 -0.120416
0.206343 2.02903 -0.119053
0.19332 2.03424 -0.118716
0.242074 2.03344 -0.121056
0.218569 2.03382 -0.120091
0.230322 2.03861 -0.120997
0.206103 2.03902 -0.119661
0.193104 2.04423 -0.11926
0.241916 2.04342 -0.121627
0.218403 2.04381 -0.120609
0.290717 1.7932 -0.108015
0.301434 1.79808 -0.108461
0.301314 1.80807 -0.10908
0.290587 1.80318 -0.108661
0.290439 1.81317 -0.109331
0.301189 1.81805 -0.109721
0.279501 1.81829 -0.109243
0.290309 1.82315 -0.109965
0.301063 1.82804 -0.110326
0.290175 1.83314 -0.110573
0.300942 1.83802 -0.11097
0.290022 1.84312 -0.111222
0.300821 1.848 -0.111649
0.28989 1.8531 -0.111885
0.279053 1.84824 -0.111108
0.267853 1.85339 -0.110643
0.27921 1.83825 -0.110483
0.268024 1.84341 -0.110028
0.279365 1.82827 -0.109867
0.256485 1.84856 -0.109763
0.268209 1.83342 -0.109427
0.256675 1.83857 -0.109139
0.279634 1.8083 -0.108655
0.268373 1.82343 -0.108814
0.256822 1.82859 -0.108548
0.279796 1.79831 -0.108017
0.268537 1.81345 -0.108193
0.256998 1.8186 -0.107955
0.268668 1.80346 -0.107585
0.354404 1.7926 -0.1094
0.33319 1.79277 -0.109146
0.312183 1.79298 -0.108368
0.364934 1.79752 -0.109883
0.354353 1.80259 -0.110038
0.333116 1.80275 -0.109786
0.343811 1.79768 -0.10955
0.32258 1.79786 -0.109174
0.36486 1.8075 -0.110545
0.343738 1.80766 -0.110203
0.322483 1.80785 -0.10981
0.31208 1.80297 -0.10903
0.333009 1.81273 -0.110446
0.354268 1.81257 -0.110702
0.311986 1.81295 -0.109683
0.364767 1.81748 -0.111213
0.343631 1.81764 -0.110845
0.322377 1.81783 -0.110446
0.354169 1.82255 -0.111359
0.332914 1.82272 -0.111085
0.311873 1.82293 -0.110335
0.311735 1.83292 -0.110941
0.311627 1.8429 -0.11161
0.311521 1.85288 -0.11229
0.364711 1.82746 -0.111873
0.343543 1.82762 -0.111487
0.322288 1.82781 -0.111058
0.354107 1.83253 -0.112019
0.332819 1.8327 -0.111726
0.364671 1.83744 -0.112549
0.343483 1.8376 -0.112164
0.322195 1.83779 -0.111701
0.354077 1.84251 -0.112692
0.332763 1.84268 -0.112406
0.364657 1.84742 -0.113224
0.343446 1.84758 -0.112845
0.322125 1.84778 -0.112396
0.3327 1.85266 -0.11306
0.35403 1.85249 -0.113349
0.300688 1.85798 -0.112305
0.278904 1.85822 -0.111693
0.256303 1.85855 -0.110347
0.28974 1.86308 -0.112536
0.267687 1.86337 -0.111287
0.300556 1.86796 -0.112959
0.278756 1.86821 -0.112313
0.256117 1.86853 -0.110975
0.289597 1.87307 -0.113175
0.267515 1.87336 -0.111903
0.300425 1.87795 -0.113609
0.278639 1.87819 -0.11293
0.255928 1.87851 -0.111588
0.289462 1.88305 -0.113795
0.267389 1.88334 -0.112502
0.300264 1.88793 -0.114237
0.278502 1.88817 -0.113564
0.255765 1.8885 -0.112173
0.289341 1.89303 -0.11441
0.300171 1.89791 -0.114908
0.26723 1.89333 -0.113107
0.289223 1.90301 -0.115073
0.278367 1.89816 -0.114179
0.26707 1.90331 -0.113694
0.255613 1.89849 -0.112747
0.300041 1.90789 -0.115538
0.278242 1.90814 -0.114806
0.255409 1.90847 -0.113391
0.289113 1.91299 -0.115687
0.266913 1.91329 -0.114321
0.299946 1.91787 -0.116129
0.278108 1.91812 -0.115405
0.255228 1.91845 -0.113997
0.364613 1.8574 -0.113889
0.343377 1.85756 -0.113482
0.322031 1.85776 -0.113045
0.311409 1.86286 -0.112941
0.332614 1.86264 -0.11372
0.35397 1.86247 -0.114011
0.364509 1.86738 -0.114563
0.343282 1.86754 -0.114137
0.321931 1.86774 -0.113698
0.311285 1.87284 -0.11359
0.353861 1.87244 -0.114678
0.332506 1.87262 -0.114369
0.310958 1.90279 -0.115506
0.31085 1.91276 -0.116126
0.364442 1.87736 -0.115223
0.343189 1.87752 -0.114774
0.321824 1.87772 -0.114324
0.311164 1.88282 -0.114227
[...]
POINT_DATA 40400
VECTORS alpha float
1.72106e-07 -6.72514e-10 4.42391e-09
-4.41289e-08 7.73555e-06 -4.97157e-07
1.70501e-07 -8.08921e-10 5.20673e-09
1.68229e-07 -6.50423e-10 4.35122e-09
-5.12536e-08 8.92097e-06 -5.72019e-07
1.69472e-07 -9.99221e-10 5.08382e-09
1.73251e-07 -2.23575e-10 2.55604e-09
1.73669e-07 -1.10328e-10 2.37486e-09
-1.48721e-08 4.41294e-06 -2.92105e-07
1.71553e-07 -4.21191e-10 2.963e-09
1.72734e-07 -3.70067e-10 2.45993e-09
-3.83174e-09 2.20858e-06 -1.46926e-07
1.73535e-07 -1.68198e-10 -7.64708e-10
-1.39495e-08 5.51095e-06 -3.6244e-07
1.71616e-07 -5.53668e-10 3.27578e-09
1.69153e-07 -2.13481e-10 2.5534e-09
1.69534e-07 -1.04569e-10 2.33575e-09
1.69428e-07 -1.6318e-10 -7.47423e-10
-7.54432e-09 3.31203e-06 -2.21081e-07
2.22196e-10 1.10422e-06 -7.38373e-08
-1.41239e-08 4.41355e-06 -2.92887e-07
1.67576e-07 -4.04603e-10 3.0031e-09
1.68676e-07 -3.57966e-10 2.43625e-09
-1.77734e-08 6.61206e-06 -4.24402e-07
-3.55139e-09 2.20885e-06 -1.47684e-07
4.10119e-10 1.10437e-06 -7.40917e-08
3.97853e-15 -6.60264e-12 4.43919e-13
1.72663e-07 -4.08486e-10 3.19795e-09
1.73684e-07 -3.66633e-10 2.50367e-09
-1.30523e-08 5.51179e-06 -3.61653e-07
1.67635e-07 -5.31839e-10 3.34453e-09
-3.38626e-09 2.20913e-06 -1.47885e-07
1.74097e-07 -2.1632e-10 2.67109e-09
1.74443e-07 -1.07161e-10 2.39637e-09
1.74323e-07 -1.70068e-10 -8.24015e-10
-6.21536e-09 3.31249e-06 -2.21703e-07
-1.46269e-08 4.41406e-06 -2.94227e-07
1.72791e-07 -5.36651e-10 3.60207e-09
-1.69944e-08 6.61296e-06 -4.25375e-07
-6.15841e-09 3.3129e-06 -2.2228e-07
6.03476e-10 1.1045e-06 -7.42172e-08
-3.92512e-08 7.73674e-06 -4.95309e-07
1.66694e-07 -7.82803e-10 5.1746e-09
1.6889e-07 -3.91126e-10 3.2723e-09
1.69833e-07 -3.55662e-10 2.48185e-09
-1.47437e-08 5.51255e-06 -3.61742e-07
-3.13422e-09 2.20942e-06 -1.47734e-07
1.70232e-07 -2.07403e-10 2.65681e-09
1.70556e-07 -1.02823e-10 2.34979e-09
1.70437e-07 -1.66557e-10 -8.41765e-10
1.68649e-07 -1.20016e-09 4.85876e-09
1.71964e-07 -7.97467e-10 5.48395e-09
1.73438e-07 -6.6388e-10 4.5866e-09
-4.71766e-08 8.92228e-06 -5.72701e-07
-6.72248e-08 1.02247e-05 -6.57466e-07
1.65792e-07 -9.64145e-10 5.21228e-09
-1.42945e-08 4.41465e-06 -2.93711e-07
-1.45228e-08 5.51327e-06 -3.59546e-07
1.69011e-07 -5.15732e-10 3.67032e-09
-1.76332e-08 6.61388e-06 -4.27175e-07
1.6888e-07 -2.02716e-10 2.65269e-09
-5.11028e-09 3.31334e-06 -2.21706e-07
8.36368e-10 1.10465e-06 -7.40412e-08
-2.36628e-16 4.49022e-12 -3.00824e-13
-1.66085e-07 1.53577e-05 -9.04518e-07
1.89759e-07 -2.09097e-09 6.10706e-09
-1.63785e-07 1.53599e-05 -9.07331e-07
1.85084e-07 -2.01917e-09 6.35183e-09
-2.73563e-07 1.7377e-05 -9.92319e-07
1.92485e-07 -2.26039e-09 6.68733e-09
-1.53812e-07 1.53628e-05 -8.96523e-07
1.82288e-07 -1.97345e-09 6.48541e-09
-2.71013e-07 1.73794e-05 -9.94822e-07
1.87752e-07 -2.18291e-09 7.10638e-09
-4.02155e-07 1.92011e-05 -1.07134e-06
1.82346e-07 -1.96026e-09 6.66185e-09
-2.59652e-07 1.73822e-05 -9.84784e-07
1.97509e-07 -2.44023e-09 6.98746e-09
-1.61051e-07 1.53647e-05 -9.05564e-07
1.85107e-07 -2.1399e-09 7.41629e-09
-3.96639e-07 1.92036e-05 -1.07883e-06
-5.18947e-07 2.04172e-05 -1.05681e-06
-5.1622e-07 2.04137e-05 -1.05516e-06
-5.04112e-07 2.04104e-05 -1.03854e-06
-5.19575e-07 2.0407e-05 -1.0551e-06
2.16886e-07 -2.80429e-09 -5.63617e-10
2.06842e-07 -2.66278e-09 -2.05616e-10
-5.20648e-07 2.04201e-05 -1.06984e-06
2.07616e-07 -2.65662e-09 4.36864e-11
-5.33386e-07 2.04241e-05 -1.08101e-06
2.01719e-07 -2.56839e-09 5.97504e-10
-7.07724e-07 2.06154e-05 -1.08467e-06
-1.68221e-07 1.53549e-05 -9.06392e-07
-2.754e-07 1.73741e-05 -9.9712e-07
-3.98957e-07 1.91979e-05 -1.06371e-06
1.89927e-07 -2.10149e-09 5.88774e-09
1.92519e-07 -2.27102e-09 6.40096e-09
1.97323e-07 -2.45447e-09 6.34488e-09
2.16993e-07 -2.73896e-09 5.76529e-09
2.01966e-07 -2.5198e-09 6.2593e-09
-1.56842e-07 1.53526e-05 -8.96816e-07
1.93798e-07 -2.15848e-09 5.71195e-09
-2.57303e-07 1.73709e-05 -9.83834e-07
1.96805e-07 -2.33181e-09 6.32057e-09
-3.78959e-07 1.91948e-05 -1.05287e-06
2.07755e-07 -2.60034e-09 6.10376e-09
2.07118e-07 -2.60494e-09 5.84265e-09
-1.60212e-07 1.535e-05 -8.87113e-07
-2.62642e-07 1.73684e-05 -9.87421e-07
-3.76394e-07 1.91918e-05 -1.04931e-06
1.99241e-07 -2.22833e-09 5.64339e-09
2.0252e-07 -2.41091e-09 6.10149e-09
-1.641e-07 1.53472e-05 -8.87575e-07
-2.65548e-07 1.73653e-05 -9.91539e-07
-3.71187e-07 1.91882e-05 -1.04386e-06
1.98484e-07 -2.23116e-09 5.54279e-09
2.01775e-07 -2.41679e-09 5.87694e-09
2.07284e-07 -2.34503e-09 5.67546e-09
-1.62935e-07 1.53448e-05 -8.81641e-07
-2.56448e-07 1.73626e-05 -9.84064e-07
-3.5531e-07 1.91854e-05 -1.03538e-06
-1.8332e-07 1.53422e-05 -8.92969e-07
-2.74957e-07 1.73597e-05 -9.94265e-07
2.10935e-07 -2.54128e-09 5.87614e-09
-3.71403e-07 1.91824e-05 -1.04199e-06
1.79111e-07 -1.91158e-09 6.78475e-09
-2.57144e-07 1.73848e-05 -9.88447e-07
1.92562e-07 -2.35804e-09 7.38199e-09
2.16609e-07 -2.79641e-09 -5.01967e-10
-5.06564e-07 2.04038e-05 -1.05824e-06
-6.75291e-07 2.06116e-05 -1.08904e-06
2.24871e-07 -2.9077e-09 -8.26145e-10
-5.12035e-07 2.04005e-05 -1.07293e-06
-6.41616e-07 2.06075e-05 -1.06504e-06
2.28956e-07 -2.96193e-09 -9.51338e-10
-4.86671e-07 2.03965e-05 -1.05758e-06
2.31056e-07 -2.93105e-09 5.80218e-09
-6.15819e-07 2.06044e-05 -1.04282e-06
-5.01733e-07 2.03932e-05 -1.05817e-06
2.31436e-07 -2.9965e-09 -1.23132e-09
2.31526e-07 -2.94536e-09 5.67456e-09
2.32008e-07 -3.00774e-09 -1.71441e-09
-6.20515e-07 2.0601e-05 -1.05577e-06
-5.17544e-07 2.03901e-05 -1.05951e-06
-6.18712e-07 2.05971e-05 -1.04858e-06
2.35274e-07 -3.00661e-09 5.72697e-09
2.35936e-07 -3.0675e-09 -2.01272e-09
-5.31622e-07 2.03866e-05 -1.07177e-06
-6.54603e-07 2.05936e-05 -1.06335e-06
2.34469e-07 -2.99914e-09 5.74886e-09
2.35039e-07 -3.06111e-09 -2.24082e-09
2.26422e-07 -3.04889e-09 -2.07723e-08
2.2712e-07 -3.06295e-09 -2.09776e-08
2.1637e-07 -2.73283e-09 5.70587e-09
2.06477e-07 -2.34816e-09 5.59902e-09
2.10023e-07 -2.5421e-09 5.69292e-09
-1.6546e-07 1.53403e-05 -8.82168e-07
2.28741e-07 -2.89173e-09 5.88569e-09
-2.56847e-07 1.73569e-05 -1.00005e-06
-3.5141e-07 1.91792e-05 -1.04836e-06
2.13497e-07 -2.44083e-09 5.72687e-09
2.2444e-07 -2.83981e-09 5.79767e-09
2.17358e-07 -2.64441e-09 5.73949e-09
-1.73961e-07 1.53374e-05 -8.92057e-07
-2.67307e-07 1.73542e-05 -1.00098e-06
-3.48364e-07 1.9176e-05 -1.04649e-06
2.16596e-07 -2.47773e-09 5.89066e-09
2.20702e-07 -2.69813e-09 5.75607e-09
-1.67698e-07 1.53348e-05 -8.97468e-07
-2.56931e-07 1.73508e-05 -1.01381e-06
-3.47388e-07 1.91724e-05 -1.05297e-06
2.18552e-07 -2.51142e-09 5.86699e-09
2.22731e-07 -2.73485e-09 5.60475e-09
-1.69705e-07 1.5332e-05 -8.97536e-07
-2.54198e-07 1.7348e-05 -1.01034e-06
-3.5387e-07 1.91696e-05 -1.04941e-06
2.19211e-07 -2.53171e-09 5.74878e-09
2.23315e-07 -2.75685e-09 5.38882e-09
-3.69131e-07 1.91664e-05 -1.05175e-06
-1.66353e-07 1.53292e-05 -8.85814e-07
-2.54938e-07 1.73449e-05 -1.00622e-06
2.22474e-07 -2.58823e-09 5.64382e-09
2.26779e-07 -2.82252e-09 5.16868e-09
-3.54378e-07 1.91634e-05 -1.03864e-06
-1.51937e-07 1.5326e-05 -8.84603e-07
-2.30959e-07 1.73417e-05 -9.9262e-07
2.21921e-07 -2.58466e-09 5.57102e-09
2.26052e-07 -2.81618e-09 5.04891e-09
-5.12792e-07 2.03829e-05 -1.07996e-06
-6.45245e-07 2.05898e-05 -1.06283e-06
2.38815e-07 -3.06316e-09 5.59263e-09
2.39881e-07 -3.12959e-09 -2.61512e-09
2.31214e-07 -3.11573e-09 -2.15059e-08
-5.08389e-07 2.03791e-05 -1.08046e-06
-6.36781e-07 2.05859e-05 -1.04261e-06
2.42493e-07 -3.1213e-09 5.51414e-09
2.44048e-07 -3.19565e-09 -2.92848e-09
2.35793e-07 -3.17747e-09 -2.19177e-08
-4.82517e-07 2.03757e-05 -1.06528e-06
-5.8331e-07 2.05817e-05 -9.8766e-07
2.58152e-07 -3.32285e-09 5.84547e-09
2.60124e-07 -3.40462e-09 -3.2472e-09
2.51508e-07 -3.37591e-09 -2.31211e-08
-4.81566e-07 2.03713e-05 -1.07369e-06
-5.98458e-07 2.05776e-05 -9.99564e-07
2.64196e-07 -3.41061e-09 5.82446e-09
2.65576e-07 -3.48708e-09 -3.55766e-09
2.56263e-07 -3.43431e-09 -2.35531e-08
-4.84479e-07 2.03675e-05 -1.066e-06
-5.71941e-07 2.05732e-05 -9.65153e-07
2.65041e-07 -3.43612e-09 5.62083e-09
2.66799e-07 -3.50742e-09 -3.76385e-09
2.58376e-07 -3.45482e-09 -2.38242e-08
-4.58704e-07 2.03626e-05 -1.0484e-06
-5.40279e-07 2.05687e-05 -9.38893e-07
2.68357e-07 -3.60247e-09 -2.53708e-08
2.75711e-07 -3.57367e-09 5.83171e-09
2.77316e-07 -3.6506e-09 -4.32211e-09
-4.86972e-07 2.03587e-05 -1.06058e-06
-5.161e-07 2.0564e-05 -9.20644e-07
-3.52291e-07 1.91599e-05 -1.05191e-06
-1.55556e-07 1.53228e-05 -8.88477e-07
-2.39577e-07 1.73386e-05 -1.00111e-06
2.25588e-07 -2.64188e-09 5.47118e-09
2.3013e-07 -2.87856e-09 4.85864e-09
-3.68928e-07 1.91567e-05 -1.05659e-06
-1.60251e-07 1.53198e-05 -8.81472e-07
-2.42706e-07 1.73356e-05 -9.9843e-07
2.28598e-07 -2.69334e-09 5.2676e-09
2.33536e-07 -2.94525e-09 4.41183e-09
-3.63657e-07 1.9153e-05 -1.0522e-06
-1.56178e-07 1.53171e-05 -8.78709e-07
-2.31987e-07 1.73325e-05 -9.90893e-07
2.42809e-07 -2.86832e-09 5.44578e-09
2.4856e-07 -3.14007e-09 4.45599e-09
-3.61935e-07 1.91494e-05 -1.04832e-06
-1.62359e-07 1.53139e-05 -8.81848e-07
-2.34772e-07 1.73293e-05 -9.8912e-07
2.48945e-07 -2.95215e-09 5.46562e-09
2.5471e-07 -3.23037e-09 4.29268e-09
-3.66048e-07 1.91459e-05 -1.03488e-06
-1.66275e-07 1.53107e-05 -8.8414e-07
-2.35193e-07 1.7326e-05 -9.76754e-07
2.49543e-07 -2.98038e-09 5.1988e-09
2.55459e-07 -3.25475e-09 4.25863e-09
-3.37499e-07 1.91417e-05 -1.01206e-06
-1.58229e-07 1.5308e-05 -8.65055e-07
-2.1762e-07 1.73221e-05 -9.60632e-07
2.59397e-07 -3.10978e-09 5.14011e-09
2.65566e-07 -3.39591e-09 4.35115e-09
-3.55199e-07 1.91375e-05 -1.02212e-06
-1.70937e-07 1.53047e-05 -8.70313e-07
-2.23849e-07 1.73184e-05 -9.52859e-07
-8.45303e-08 1.17126e-05 -7.34317e-07
1.68445e-07 -1.20642e-09 4.76878e-09
1.70852e-07 -1.23596e-09 4.67606e-09
-8.23751e-08 1.17109e-05 -7.4116e-07
-8.15574e-08 1.17093e-05 -7.4283e-07
1.78015e-07 -1.30154e-09 4.68259e-09
1.78405e-07 -1.47421e-09 5.19742e-09
-9.029e-08 1.17071e-05 -7.59143e-07
1.80693e-07 -1.33881e-09 4.4575e-09
-7.54235e-08 1.17058e-05 -7.39062e-07
1.80893e-07 -1.342e-09 4.51089e-09
-7.86888e-08 1.17038e-05 -7.36415e-07
1.83805e-07 -1.36862e-09 4.58733e-09
-8.05643e-08 1.17017e-05 -7.40162e-07
1.84233e-07 -1.55013e-09 4.99263e-09
-1.00623e-07 1.34228e-05 -8.08229e-07
1.81357e-07 -1.51831e-09 5.02099e-09
-1.00764e-07 1.34249e-05 -8.10729e-07
1.81274e-07 -1.51087e-09 5.12076e-09
1.84412e-07 -1.82626e-09 5.32688e-09
-9.71119e-08 1.34272e-05 -8.14625e-07
1.81584e-07 -1.78881e-09 5.4136e-09
1.70954e-07 -1.3961e-09 5.28331e-09
-1.0653e-07 1.34287e-05 -8.29388e-07
1.81674e-07 -1.77944e-09 5.58797e-09
1.68614e-07 -1.37009e-09 5.36095e-09
-9.95399e-08 1.3431e-05 -8.27522e-07
1.78702e-07 -1.73492e-09 5.77361e-09
-1.07628e-07 1.34329e-05 -8.28121e-07
-4.40631e-08 7.73429e-06 -4.99176e-07
-4.94135e-08 8.91959e-06 -5.73675e-07
-6.45899e-08 1.02232e-05 -6.55394e-07
1.71972e-07 -6.78133e-10 4.46706e-09
-4.28132e-08 7.73311e-06 -4.99653e-07
-5.14005e-08 8.91825e-06 -5.74703e-07
1.70391e-07 -8.19712e-10 5.13108e-09
1.69437e-07 -1.00713e-09 5.02446e-09
1.74582e-07 -6.93861e-10 4.48496e-09
1.72967e-07 -8.39452e-10 5.15323e-09
1.71961e-07 -1.03305e-09 4.9704e-09
-6.10531e-08 1.02216e-05 -6.55025e-07
-4.83674e-08 8.91682e-06 -5.72501e-07
-4.06947e-08 7.73201e-06 -4.95786e-07
-5.54135e-08 1.02201e-05 -6.50719e-07
1.81286e-07 -7.29075e-10 4.4733e-09
1.79776e-07 -8.83824e-10 5.12122e-09
1.78959e-07 -1.08568e-09 4.97578e-09
-4.22636e-08 7.7307e-06 -4.98357e-07
-4.90321e-08 8.91526e-06 -5.77341e-07
-6.28574e-08 1.02183e-05 -6.57589e-07
-5.30907e-08 1.02173e-05 -6.42419e-07
-5.69324e-08 1.02155e-05 -6.48797e-07
-5.88971e-08 1.02136e-05 -6.55147e-07
1.83809e-07 -7.44588e-10 4.51786e-09
1.82351e-07 -9.05167e-10 5.07572e-09
1.81601e-07 -1.1151e-09 4.82295e-09
-3.82297e-08 7.72973e-06 -4.93199e-07
-4.33719e-08 8.91427e-06 -5.6872e-07
1.84199e-07 -7.47672e-10 4.63909e-09
1.82732e-07 -9.09736e-10 5.14895e-09
1.81903e-07 -1.1244e-09 4.72745e-09
-4.10919e-08 7.72849e-06 -4.96263e-07
-4.69057e-08 8.91274e-06 -5.75129e-07
1.87235e-07 -7.65694e-10 4.85297e-09
1.85749e-07 -9.32045e-10 5.2994e-09
1.84923e-07 -1.14685e-09 4.87858e-09
-4.74475e-08 8.91123e-06 -5.77687e-07
-4.02026e-08 7.72711e-06 -4.98851e-07
1.88101e-07 -1.41723e-09 4.51357e-09
1.88679e-07 -1.60767e-09 4.86176e-09
1.88902e-07 -1.89109e-09 5.10478e-09
-8.05933e-08 1.16998e-05 -7.30119e-07
-9.09237e-08 1.34203e-05 -8.05902e-07
1.88334e-07 -1.42858e-09 4.42142e-09
1.88815e-07 -1.61966e-09 4.72071e-09
1.89134e-07 -1.90193e-09 4.99513e-09
-7.91776e-08 1.16982e-05 -7.22454e-07
-8.89755e-08 1.34183e-05 -7.98278e-07
1.91893e-07 -1.46515e-09 4.38364e-09
1.92379e-07 -1.66014e-09 4.72133e-09
1.92915e-07 -1.95046e-09 4.8984e-09
-7.41239e-08 1.16963e-05 -7.19544e-07
-8.58027e-08 1.34162e-05 -7.92215e-07
1.96929e-07 -1.50811e-09 4.4193e-09
1.97501e-07 -1.70918e-09 4.71297e-09
1.98175e-07 -2.01543e-09 4.76622e-09
-7.13799e-08 1.16945e-05 -7.17291e-07
1.96087e-07 -1.50934e-09 4.49621e-09
-7.8718e-08 1.34143e-05 -7.84866e-07
-7.25008e-08 1.16924e-05 -7.23392e-07
1.96598e-07 -1.71311e-09 4.58891e-09
-7.47189e-08 1.3412e-05 -7.82474e-07
1.97269e-07 -2.02225e-09 4.53641e-09
2.04132e-07 -1.58289e-09 4.65346e-09
2.04841e-07 -1.79647e-09 4.65146e-09
2.05794e-07 -2.11718e-09 4.72028e-09
-7.60389e-08 1.16905e-05 -7.25483e-07
-7.83114e-08 1.34097e-05 -7.92032e-07
2.0331e-07 -1.59779e-09 4.47243e-09
2.03923e-07 -1.80676e-09 4.50567e-09
2.04989e-07 -2.12116e-09 4.66881e-09
1.91228e-07 -7.92558e-10 4.93084e-09
1.8982e-07 -9.68083e-10 5.26331e-09
1.8912e-07 -1.18918e-09 4.80717e-09
-5.86522e-08 1.02121e-05 -6.52174e-07
-4.69655e-08 8.90987e-06 -5.76576e-07
-4.00099e-08 7.72594e-06 -4.97926e-07
1.91517e-07 -8.01204e-10 4.81777e-09
1.90107e-07 -9.78889e-10 5.15798e-09
1.89418e-07 -1.20111e-09 4.71325e-09
-5.62861e-08 1.02106e-05 -6.45746e-07
-3.94399e-08 7.72486e-06 -4.95442e-07
-4.44919e-08 8.90853e-06 -5.73886e-07
-5.49484e-08 1.02054e-05 -6.46761e-07
-6.18653e-08 1.02037e-05 -6.46536e-07
1.95156e-07 -8.25818e-10 4.82654e-09
1.9362e-07 -1.01052e-09 5.0561e-09
1.92927e-07 -1.23524e-09 4.65154e-09
-5.31227e-08 1.02088e-05 -6.46847e-07
-5.22223e-08 1.02072e-05 -6.41704e-07
-3.99229e-08 7.72364e-06 -4.96619e-07
-4.42221e-08 8.90705e-06 -5.75897e-07
2.00158e-07 -8.50656e-10 4.94415e-09
1.98665e-07 -1.042e-09 5.16691e-09
1.97984e-07 -1.27387e-09 4.66832e-09
-3.80793e-08 7.72243e-06 -4.93807e-07
-4.15127e-08 8.90566e-06 -5.72296e-07
1.99262e-07 -8.54437e-10 5.05079e-09
1.97783e-07 -1.04631e-09 5.21974e-09
1.97169e-07 -1.28198e-09 4.61732e-09
-3.78792e-08 7.72112e-06 -4.95075e-07
-4.19115e-08 8.90412e-06 -5.74551e-07
2.07197e-07 -8.97522e-10 5.24676e-09
2.0572e-07 -1.10002e-09 5.35677e-09
2.05216e-07 -1.34679e-09 4.70254e-09
-4.45871e-08 8.90253e-06 -5.75251e-07
-3.9267e-08 7.71971e-06 -4.9643e-07
2.067e-07 -9.07276e-10 5.09749e-09
2.05125e-07 -1.1128e-09 5.17486e-09
2.04578e-07 -1.36156e-09 4.51043e-09
1.7265e-07 -3.74773e-10 2.39835e-09
-1.20755e-08 5.51014e-06 -3.62572e-07
-1.41116e-08 4.4123e-06 -2.91666e-07
-1.67892e-08 6.61092e-06 -4.27294e-07
-1.44317e-08 4.41162e-06 -2.91347e-07
1.71448e-07 -4.27807e-10 2.84594e-09
-1.10687e-08 5.50927e-06 -3.61676e-07
-1.64716e-08 6.60992e-06 -4.28366e-07
1.71504e-07 -5.61025e-10 3.13323e-09
1.74148e-07 -4.39707e-10 2.80851e-09
1.75383e-07 -3.83237e-10 2.40988e-09
1.74198e-07 -5.76067e-10 3.0572e-09
-1.356e-08 4.41093e-06 -2.91284e-07
-1.05651e-08 5.50848e-06 -3.61079e-07
-1.68637e-08 6.60897e-06 -4.27628e-07
1.81832e-07 -4.01742e-10 2.4354e-09
1.80598e-07 -4.62976e-10 2.83764e-09
1.80816e-07 -6.10987e-10 3.00035e-09
-2.00685e-08 6.60776e-06 -4.32421e-07
-1.33804e-08 4.41013e-06 -2.93869e-07
-1.04596e-08 5.50744e-06 -3.64845e-07
1.83022e-07 -4.74248e-10 2.79285e-09
1.8419e-07 -4.11038e-10 2.43511e-09
1.83296e-07 -6.26949e-10 2.90069e-09
-1.9161e-08 6.60684e-06 -4.3076e-07
-1.27781e-08 4.40958e-06 -2.91339e-07
-8.08535e-09 5.50673e-06 -3.61901e-07
1.83435e-07 -4.79369e-10 2.7262e-09
1.84612e-07 -4.13351e-10 2.42233e-09
1.83721e-07 -6.31757e-10 2.82502e-09
-2.19679e-08 6.60575e-06 -4.33423e-07
-2.48328e-08 6.60449e-06 -4.37603e-07
-1.21282e-08 4.40882e-06 -2.92505e-07
-7.46584e-09 5.50583e-06 -3.63426e-07
-1.25095e-08 4.40802e-06 -2.94769e-07
1.86436e-07 -4.90632e-10 2.72386e-09
1.87656e-07 -4.22302e-10 2.44131e-09
-7.84715e-09 5.5048e-06 -3.66842e-07
1.8672e-07 -6.45282e-10 2.8254e-09
-3.8714e-09 2.20827e-06 -1.46453e-07
1.73136e-07 -2.28365e-10 2.5e-09
1.73566e-07 -1.13248e-10 2.34565e-09
1.73469e-07 -1.69692e-10 -7.60302e-10
-7.18145e-09 3.31156e-06 -2.20507e-07
2.07309e-10 1.10406e-06 -7.35259e-08
-4.09584e-09 2.20792e-06 -1.46345e-07
-7.7559e-09 3.31107e-06 -2.19745e-07
3.57557e-11 1.10389e-06 -7.34157e-08
1.75898e-07 -2.35541e-10 2.51936e-09
1.76349e-07 -1.1742e-10 2.39174e-09
1.76253e-07 -1.72808e-10 -7.20913e-10
-3.72759e-09 2.20758e-06 -1.46297e-07
1.07297e-10 1.10372e-06 -7.34467e-08
-7.09988e-09 3.31054e-06 -2.19745e-07
1.82298e-07 -2.5206e-10 2.5124e-09
1.82736e-07 -1.23965e-10 2.47705e-09
1.82612e-07 -1.79071e-10 -7.02658e-10
-3.47887e-09 2.20717e-06 -1.47377e-07
1.25296e-10 1.10352e-06 -7.39131e-08
-1.22806e-14 -7.97911e-12 5.359e-13
-6.82442e-09 3.30994e-06 -2.21313e-07
1.84688e-07 -2.5836e-10 2.5254e-09
1.85114e-07 -1.28632e-10 2.50424e-09
1.84933e-07 -1.81079e-10 -6.87146e-10
-3.19854e-09 2.20688e-06 -1.46388e-07
-6.37641e-09 3.30951e-06 -2.19828e-07
2.59827e-10 1.10336e-06 -7.35315e-08
1.85123e-07 -2.61811e-10 2.50284e-09
1.85515e-07 -1.31315e-10 2.47827e-09
1.85371e-07 -1.84233e-10 -7.15475e-10
-6.0391e-09 3.30895e-06 -2.20466e-07
-6.46612e-09 3.30832e-06 -2.22479e-07
-2.96659e-09 2.2065e-06 -1.46847e-07
2.92712e-10 1.10317e-06 -7.3645e-08
-1.11305e-14 -8.17555e-12 5.46572e-13
-3.29744e-09 2.20609e-06 -1.4821e-07
1.39998e-10 1.10296e-06 -7.43024e-08
-9.81573e-15 -8.2877e-12 5.59976e-13
1.88449e-07 -1.89285e-10 -7.48904e-10
1.88145e-07 -2.68771e-10 2.52668e-09
1.88595e-07 -1.36184e-10 2.49398e-09
1.90191e-07 -5.08821e-10 2.69209e-09
1.91331e-07 -4.36763e-10 2.42537e-09
1.90534e-07 -6.64979e-10 2.83398e-09
-2.36655e-08 6.60357e-06 -4.32929e-07
-1.24072e-08 4.40734e-06 -2.94799e-07
-7.98565e-09 5.50404e-06 -3.65232e-07
1.91637e-07 -4.40659e-10 2.38776e-09
1.90456e-07 -5.13727e-10 2.67074e-09
1.90874e-07 -6.73479e-10 2.71764e-09
-2.4113e-08 6.60268e-06 -4.30246e-07
-1.22425e-08 4.40674e-06 -2.94092e-07
-7.6618e-09 5.50324e-06 -3.64262e-07
1.94218e-07 -5.32487e-10 2.59058e-09
1.95441e-07 -4.53584e-10 2.40166e-09
1.94579e-07 -6.98097e-10 2.57282e-09
-2.46991e-08 6.60156e-06 -4.30134e-07
-1.18914e-08 4.40592e-06 -2.95219e-07
-7.32027e-09 5.50224e-06 -3.65558e-07
1.99183e-07 -5.51485e-10 2.5792e-09
2.00424e-07 -4.69288e-10 2.40812e-09
1.99602e-07 -7.20953e-10 2.54532e-09
-2.7138e-08 6.59822e-06 -4.29482e-07
-2.42489e-08 6.60037e-06 -4.30037e-07
-1.1349e-08 4.40511e-06 -2.96095e-07
-6.39181e-09 5.50127e-06 -3.65525e-07
-2.54908e-08 6.5993e-06 -4.29105e-07
1.98328e-07 -5.56774e-10 2.49963e-09
1.99554e-07 -4.71901e-10 2.35511e-09
1.98686e-07 -7.24022e-10 2.5168e-09
-1.20608e-08 4.40443e-06 -2.96221e-07
-6.44297e-09 5.50037e-06 -3.65126e-07
2.0733e-07 -4.95873e-10 2.44351e-09
2.06064e-07 -5.84624e-10 2.61073e-09
2.06533e-07 -7.61896e-10 2.53417e-09
-1.28667e-08 4.40371e-06 -2.9699e-07
-7.46553e-09 5.4995e-06 -3.64738e-07
2.05755e-07 -5.9143e-10 2.53216e-09
2.06997e-07 -5.00546e-10 2.40445e-09
2.06156e-07 -7.71913e-10 2.4077e-09
1.92022e-07 -1.94649e-10 -6.88118e-10
1.91767e-07 -2.8181e-10 2.52464e-09
1.92182e-07 -1.42687e-10 2.56586e-09
-6.34415e-09 3.30777e-06 -2.22703e-07
-3.03644e-09 2.20572e-06 -1.48184e-07
1.67677e-10 1.10279e-06 -7.42377e-08
-1.01722e-14 -8.41371e-12 5.67453e-13
1.92081e-07 -2.85022e-10 2.52743e-09
1.92495e-07 -1.45548e-10 2.57436e-09
1.92307e-07 -1.94996e-10 -6.50081e-10
-6.45333e-09 3.30729e-06 -2.22716e-07
-2.82733e-09 2.20543e-06 -1.47779e-07
2.34486e-10 1.10263e-06 -7.41514e-08
1.95979e-07 -2.9419e-10 2.56458e-09
1.9642e-07 -1.49834e-10 2.64546e-09
1.96199e-07 -1.988e-10 -6.38137e-10
-2.70214e-09 2.20503e-06 -1.48452e-07
-1.11939e-14 -8.66299e-12 5.85734e-13
2.61728e-10 1.10243e-06 -7.44432e-08
-6.62562e-09 3.30672e-06 -2.23345e-07
2.00926e-07 -3.03612e-10 2.62415e-09
2.01369e-07 -1.56383e-10 2.67502e-09