# vtk DataFile Version 3.0
vtk output
ASCII
DATASET POLYDATA
POINTS 29290 float
0.126382 1.48028 -0.07845
0.126569 1.47029 -0.0780835
0.126808 1.46029 -0.0776513
0.126895 1.4503 -0.0773972
0.126998 1.44031 -0.077124
0.127169 1.43032 -0.0767577
0.127387 1.42033 -0.0763262
0.127547 1.41035 -0.0759457
0.115291 1.47544 -0.0756537
0.295134 1.2935 -0.0761904
0.316054 1.29336 -0.07615
0.253195 1.2939 -0.0757689
0.274315 1.2937 -0.0756802
0.28475 1.28861 -0.0756991
0.305631 1.28844 -0.0758186
0.449182 1.29776 -0.0779628
0.387957 1.29794 -0.0776976
0.408379 1.29787 -0.0776752
0.418636 1.29285 -0.0775525
0.438998 1.2928 -0.0775953
0.459379 1.29276 -0.0775985
0.479744 1.29275 -0.0774946
0.428822 1.29781 -0.0778762
0.469556 1.29774 -0.0778454
0.489912 1.29773 -0.0778411
0.377785 1.29299 -0.0773689
0.39817 1.29292 -0.0774051
0.367514 1.29804 -0.0773949
0.428836 1.28784 -0.0772232
0.449179 1.28779 -0.0773066
0.469554 1.28777 -0.0771901
0.489902 1.28776 -0.0771845
0.346981 1.28816 -0.0767472
0.336593 1.2932 -0.0770226
0.357292 1.2931 -0.077062
0.387998 1.28797 -0.0770357
0.408408 1.2879 -0.0770026
0.418652 1.28288 -0.0769183
0.438997 1.28283 -0.0769503
0.459363 1.2828 -0.0769538
0.479714 1.28278 -0.0768464
0.499985 1.28277 -0.0769439
0.336656 1.28323 -0.0763786
0.35734 1.28312 -0.0763905
0.377833 1.28302 -0.076688
0.398206 1.28295 -0.0767187
0.367565 1.28806 -0.0767362
0.428843 1.27786 -0.0766028
0.449172 1.27782 -0.0766668
0.469531 1.2778 -0.0765548
0.489865 1.27779 -0.0765502
0.377872 1.27304 -0.076071
0.39824 1.27297 -0.0760779
0.347057 1.27819 -0.076111
0.367608 1.27809 -0.0760795
0.388039 1.27799 -0.076382
0.408437 1.27794 -0.0763374
0.32648 1.28829 -0.0761813
0.418671 1.2729 -0.0763216
0.438999 1.27285 -0.0763246
0.45935 1.27282 -0.0763246
0.479688 1.27281 -0.0762177
0.500012 1.29273 -0.0775921
0.388072 1.26802 -0.0757582
0.336734 1.27325 -0.0758057
0.357404 1.27315 -0.0757598
0.449166 1.26785 -0.0760195
0.428852 1.26789 -0.0759734
0.469511 1.26783 -0.0759173
0.489832 1.26782 -0.0759211
0.209398 1.31437 -0.076646
0.198193 1.3195 -0.0770114
0.209225 1.32435 -0.0772349
0.198005 1.32948 -0.0775939
0.209045 1.33433 -0.0778489
0.197831 1.33947 -0.0781525
0.18562 1.37457 -0.0799969
0.185362 1.38455 -0.0806165
0.17387 1.37972 -0.0800048
0.162352 1.38486 -0.07953
0.185858 1.36458 -0.0794289
0.17416 1.36973 -0.0794548
0.162615 1.37488 -0.0789594
0.18609 1.3546 -0.0788162
0.174423 1.35975 -0.0788401
0.162923 1.3649 -0.0783134
0.174695 1.34977 -0.0782196
0.151381 1.38004 -0.0778825
0.197599 1.34945 -0.0787866
0.197178 1.36942 -0.0800394
0.208377 1.37427 -0.0802733
0.196976 1.3794 -0.0805796
0.208206 1.38425 -0.0808878
0.219643 1.37912 -0.0804026
0.20854 1.36428 -0.0797291
0.219792 1.36914 -0.0797868
0.19738 1.35943 -0.0794721
0.20872 1.3543 -0.079086
0.219956 1.35916 -0.0791453
0.186362 1.34462 -0.0781991
0.208893 1.34432 -0.0784825
0.220109 1.34918 -0.0785259
0.173589 1.3897 -0.0806319
0.19678 1.38938 -0.0811693
0.219494 1.3891 -0.0810271
0.220238 1.3392 -0.0779338
0.163182 1.35491 -0.0777383
0.186577 1.33463 -0.0776391
0.174979 1.33978 -0.0775874
0.151688 1.37005 -0.0773118
0.220382 1.32921 -0.0773245
0.163433 1.34492 -0.0771883
0.186781 1.32464 -0.0771346
0.175224 1.3298 -0.0770007
0.151894 1.36006 -0.0768293
0.18699 1.31466 -0.076561
0.220549 1.31923 -0.076686
0.139786 1.3852 -0.0764287
0.163643 1.33494 -0.0767047
0.198371 1.30951 -0.0765044
0.175501 1.31981 -0.0763667
0.152154 1.35008 -0.0763518
0.187244 1.30467 -0.0759847
0.209572 1.30438 -0.0760766
0.220712 1.30925 -0.076083
0.163927 1.32496 -0.0761279
0.140074 1.37522 -0.075925
0.152365 1.34009 -0.075877
0.198564 1.29953 -0.0759271
0.175791 1.30983 -0.075697
0.253068 1.30388 -0.0763936
0.242525 1.30899 -0.0765105
0.26367 1.30877 -0.0765233
0.252954 1.31386 -0.0770298
0.242378 1.31897 -0.0771396
0.26356 1.31875 -0.0771759
0.252834 1.32384 -0.0776694
0.242228 1.32895 -0.0777623
0.263458 1.32872 -0.0778319
0.252725 1.33382 -0.0782997
0.263366 1.3387 -0.0784673
0.252616 1.3438 -0.0789067
0.242108 1.33893 -0.0784191
0.231385 1.33407 -0.0776565
0.231508 1.32409 -0.0770715
0.231665 1.31411 -0.0765266
0.242662 1.29901 -0.075938
0.263775 1.29879 -0.075933
0.231843 1.30413 -0.0758932
0.295048 1.30348 -0.0767799
0.315985 1.30333 -0.0767634
0.305564 1.29842 -0.0764449
0.284663 1.29859 -0.0762908
0.284578 1.30857 -0.0768824
0.305493 1.3084 -0.0770703
0.294971 1.31346 -0.0774429
0.315918 1.31331 -0.0774214
0.274134 1.31366 -0.0769539
0.284493 1.31854 -0.0775495
0.305424 1.31837 -0.0777512
0.294903 1.32343 -0.0781214
0.315855 1.32328 -0.0781081
0.27405 1.32363 -0.077628
0.273979 1.3336 -0.0782695
0.273902 1.34358 -0.0788878
0.284424 1.32852 -0.078184
0.30536 1.32834 -0.0784375
0.294849 1.33341 -0.0787552
0.315811 1.33325 -0.0787607
0.305309 1.33832 -0.0790761
0.28437 1.33849 -0.0788316
0.294781 1.34339 -0.0793729
0.315756 1.34323 -0.0794087
0.274228 1.30368 -0.0763287
0.263258 1.34868 -0.0791082
0.241967 1.3489 -0.0790251
0.231232 1.34405 -0.0782788
0.231093 1.35403 -0.0788866
0.252484 1.35377 -0.0795387
0.241807 1.35888 -0.0796338
0.263154 1.35865 -0.0797757
0.23095 1.36401 -0.0795386
0.252349 1.36375 -0.0801771
0.241692 1.36886 -0.0801749
0.263042 1.36863 -0.080415
0.230821 1.37399 -0.0801562
0.252225 1.37372 -0.0808382
0.262932 1.3786 -0.0810554
0.241557 1.37884 -0.0808149
0.230712 1.38397 -0.0807653
0.252106 1.3837 -0.081441
0.262833 1.38858 -0.0816824
0.24144 1.38881 -0.0814292
0.305236 1.34829 -0.0797626
0.284284 1.34847 -0.0794962
0.273805 1.35356 -0.0795367
0.294704 1.35336 -0.0800456
0.315696 1.3532 -0.0800893
0.305166 1.35826 -0.0804431
0.284188 1.35844 -0.080197
0.273706 1.36353 -0.0801998
0.294621 1.36333 -0.0807222
0.315625 1.36317 -0.0807711
0.273537 1.38349 -0.0814554
0.305088 1.36823 -0.0811526
0.284101 1.36841 -0.0808795
0.273618 1.37351 -0.0808384
0.315565 1.37314 -0.0814645
0.294546 1.37331 -0.0813928
0.305021 1.37821 -0.0818403
0.284016 1.37838 -0.0815778
0.315516 1.38311 -0.0821504
0.29448 1.38328 -0.0820644
0.304958 1.38818 -0.082521
0.283942 1.38836 -0.0822315
0.151127 1.39002 -0.0784391
0.162077 1.39485 -0.0800806
0.173245 1.39968 -0.0813004
0.150664 1.40001 -0.0791597
0.139392 1.39519 -0.0770617
0.139024 1.40518 -0.0777222
0.161686 1.40483 -0.0807668
0.172933 1.40966 -0.0819234
0.150137 1.41 -0.0799011
0.138734 1.41517 -0.0783404
0.16141 1.41482 -0.0813586
0.138296 1.43514 -0.079285
0.138544 1.42515 -0.0787958
0.17263 1.41964 -0.0825652
0.149633 1.41998 -0.0805851
0.161054 1.4248 -0.0820199
0.149383 1.42997 -0.0811248
0.172323 1.42963 -0.0831764
0.160654 1.43478 -0.0826957
0.185063 1.39453 -0.0813084
0.207983 1.39423 -0.0815291
0.196508 1.39936 -0.0818759
0.219286 1.39908 -0.0816864
0.184755 1.40451 -0.0820029
0.207731 1.40421 -0.0822369
0.19624 1.40934 -0.0825557
0.219081 1.40906 -0.0823846
0.184486 1.41449 -0.0826682
0.207535 1.41419 -0.0829202
0.195994 1.41932 -0.0831877
0.218886 1.41904 -0.0830477
0.184224 1.42447 -0.0833669
0.183973 1.43446 -0.0839479
0.207326 1.42417 -0.083573
0.195748 1.4293 -0.0838664
0.218682 1.42902 -0.0837245
0.207127 1.43415 -0.084225
0.149204 1.43995 -0.0815629
0.172081 1.43961 -0.0837589
0.138139 1.44513 -0.0796471
0.160377 1.44477 -0.0832695
0.148981 1.44994 -0.0820276
0.171777 1.44959 -0.0843944
0.138019 1.45512 -0.0799458
0.159963 1.45475 -0.0838478
0.137735 1.4751 -0.0806413
0.148781 1.45993 -0.0824626
0.171466 1.45957 -0.0850439
0.137856 1.46512 -0.0802976
0.1597 1.46473 -0.084433
0.148574 1.46992 -0.0829964
0.171208 1.46955 -0.0855826
0.159451 1.47472 -0.0850284
0.148349 1.4799 -0.0835208
0.170878 1.47953 -0.0861965
0.195508 1.43929 -0.0845169
0.218494 1.439 -0.0843856
0.183722 1.44443 -0.0845844
0.206933 1.44412 -0.0848678
0.195286 1.44927 -0.0851697
0.218296 1.44897 -0.0850629
0.183456 1.45441 -0.0852351
0.206718 1.45411 -0.0855254
0.195057 1.45924 -0.0858658
0.218089 1.45895 -0.0857335
0.183186 1.46439 -0.0858364
0.182902 1.47437 -0.0864491
0.206514 1.46408 -0.0861756
0.194819 1.46922 -0.0864972
0.217889 1.46893 -0.0863725
0.206283 1.47406 -0.086788
0.194568 1.4792 -0.0871045
0.217684 1.4789 -0.0869726
0.230572 1.39395 -0.0813682
0.251973 1.39368 -0.0820485
0.262704 1.39856 -0.0823061
0.241298 1.39879 -0.0820188
0.230384 1.40393 -0.0820306
0.251841 1.40366 -0.0826411
0.241156 1.40877 -0.0826367
0.262596 1.40853 -0.0829193
0.230223 1.41391 -0.0826676
0.251713 1.41363 -0.0832638
0.240998 1.41875 -0.0832676
0.262481 1.41851 -0.0835731
0.23002 1.42389 -0.0833156
0.25159 1.42361 -0.0838742
0.229842 1.43386 -0.0839941
0.240832 1.42873 -0.0839117
0.26236 1.42848 -0.0842307
0.251454 1.43358 -0.0845228
0.273437 1.39346 -0.0820972
0.315449 1.39309 -0.0828342
0.294396 1.39325 -0.0827311
0.304874 1.39815 -0.0831724
0.283847 1.39833 -0.0828877
0.273337 1.40344 -0.0827326
0.315374 1.40306 -0.0834972
0.294316 1.40323 -0.0833712
0.283769 1.40831 -0.0835131
0.304799 1.40812 -0.083804
0.273237 1.41341 -0.0833686
0.273143 1.42339 -0.0840264
0.273046 1.43336 -0.0847028
0.315306 1.41303 -0.0841527
0.294232 1.4132 -0.0840507
0.28369 1.41828 -0.0841691
0.304725 1.4181 -0.0844876
0.315222 1.423 -0.084868
0.294159 1.42317 -0.0847386
0.283606 1.42826 -0.0848166
0.304643 1.42807 -0.0851776
0.31514 1.43297 -0.0855607
0.294076 1.43314 -0.0854258
0.240669 1.4387 -0.0845676
0.262245 1.43846 -0.0848915
0.229675 1.44384 -0.0846359
0.251332 1.44356 -0.0851515
0.240539 1.44868 -0.0851676
0.262128 1.44843 -0.0855279
0.229489 1.45382 -0.0852961
0.251207 1.45353 -0.085769
0.24037 1.45866 -0.0857981
0.262004 1.45841 -0.0861449
0.22933 1.4638 -0.085939
0.229139 1.47377 -0.0865874
0.251063 1.46351 -0.0863675
0.240234 1.46864 -0.0863925
0.261881 1.46838 -0.0867118
0.250912 1.47349 -0.0869565
0.240056 1.47862 -0.0870337
0.261765 1.47836 -0.0873126
0.283527 1.43823 -0.0854798
0.304568 1.43804 -0.0858645
0.272953 1.44333 -0.0853526
0.315054 1.44294 -0.0862678
0.293992 1.44311 -0.086121
0.283444 1.4482 -0.0861208
0.304481 1.44801 -0.0865526
0.272851 1.45331 -0.085971
0.272738 1.46328 -0.0865956
0.272635 1.47326 -0.0872042
0.314956 1.45291 -0.0869445
[...]
POINT_DATA 29290
VECTORS alpha float
4.82332e-07 -6.12596e-09 -6.19698e-08
4.77776e-07 -6.00362e-09 -5.86601e-08
4.70164e-07 -5.85117e-09 -5.5766e-08
4.67189e-07 -5.75022e-09 -5.11543e-08
4.64378e-07 -5.65843e-09 -4.69905e-08
4.56407e-07 -5.50717e-09 -4.34666e-08
4.51306e-07 -5.39943e-09 -4.06544e-08
4.42756e-07 -5.24112e-09 -3.65781e-08
-5.15971e-07 1.73514e-05 -8.52256e-07
-6.723e-08 1.15515e-05 -7.30395e-07
-4.03117e-08 1.00797e-05 -6.49342e-07
-1.28954e-07 1.51682e-05 -9.39036e-07
-7.99686e-08 1.32525e-05 -8.23277e-07
3.9853e-07 -2.79551e-09 6.36212e-09
4.05347e-07 -2.51541e-09 5.03189e-09
4.35364e-07 -5.02736e-10 4.71033e-09
4.26857e-07 -1.23705e-09 3.55072e-09
4.30529e-07 -1.13708e-09 1.07268e-09
-3.57473e-09 4.34795e-06 -2.90691e-07
-3.89485e-09 3.26316e-06 -2.19776e-07
-2.46045e-09 2.17592e-06 -1.46133e-07
-2.13225e-10 1.08787e-06 -7.34664e-08
4.32514e-07 -7.73873e-10 3.12776e-09
4.3633e-07 -3.55248e-10 2.23946e-09
4.36729e-07 -3.11526e-10 -2.06851e-09
-1.5731e-08 6.51548e-06 -4.35776e-07
-1.46882e-08 5.42964e-06 -3.65538e-07
4.21818e-07 -1.5547e-09 3.03804e-09
4.2517e-07 -7.48602e-10 3.17776e-09
4.27728e-07 -4.88201e-10 4.57087e-09
4.28791e-07 -3.40184e-10 2.2466e-09
4.29176e-07 -3.01569e-10 -2.02194e-09
4.12366e-07 -1.75891e-09 5.0395e-09
-2.38703e-08 8.79272e-06 -5.7331e-07
-1.72567e-08 7.62309e-06 -5.18343e-07
4.19868e-07 -1.20568e-09 3.65394e-09
4.23265e-07 -1.11244e-09 1.02713e-09
-3.2444e-09 4.34955e-06 -2.90636e-07
-3.44942e-09 3.26435e-06 -2.19696e-07
-2.19805e-09 2.17671e-06 -1.46088e-07
-4.13676e-11 1.08826e-06 -7.3456e-08
7.07043e-15 -1.28014e-11 8.67254e-13
-2.52759e-08 8.7962e-06 -5.71091e-07
-1.74602e-08 7.62619e-06 -5.15464e-07
-1.51921e-08 6.51787e-06 -4.35502e-07
-1.37141e-08 5.43165e-06 -3.64273e-07
4.15108e-07 -1.51461e-09 3.15056e-09
4.19121e-07 -7.06888e-10 3.52283e-09
4.21634e-07 -4.68556e-10 4.51931e-09
4.22715e-07 -3.21962e-10 2.25796e-09
4.23126e-07 -2.92572e-10 -2.08176e-09
-1.57091e-08 6.52031e-06 -4.36706e-07
-1.34673e-08 5.43368e-06 -3.6464e-07
4.06613e-07 -1.70416e-09 5.36906e-09
4.09391e-07 -1.47178e-09 3.25422e-09
4.14005e-07 -1.17163e-09 3.80636e-09
4.173e-07 -1.08824e-09 9.75573e-10
4.09929e-07 -2.15184e-09 4.11923e-09
-3.18772e-09 4.35102e-06 -2.92663e-07
-3.10237e-09 3.26548e-06 -2.20585e-07
-1.86646e-09 2.17745e-06 -1.46996e-07
1.94186e-10 1.08864e-06 -7.37548e-08
-1.21916e-14 -1.30509e-11 8.84584e-13
4.05666e-07 -1.11686e-09 4.11074e-09
-2.72246e-08 8.79904e-06 -5.80116e-07
-1.76612e-08 7.62873e-06 -5.23254e-07
4.13083e-07 -4.54647e-10 4.32613e-09
4.10582e-07 -6.69834e-10 3.69861e-09
4.14208e-07 -3.09335e-10 2.1495e-09
4.14649e-07 -2.94624e-10 -2.3173e-09
-1.97271e-07 1.89566e-05 -1.15665e-06
3.9993e-07 -4.31419e-09 2.26477e-08
-1.90283e-07 1.89501e-05 -1.13504e-06
4.07234e-07 -4.42927e-09 2.22284e-08
-1.88106e-07 1.8944e-05 -1.13426e-06
4.17876e-07 -4.60433e-09 2.15651e-08
-2.98818e-07 2.01264e-05 -1.16128e-06
-3.23511e-07 2.01193e-05 -1.17393e-06
4.49752e-07 -5.36759e-09 1.65301e-08
-4.48628e-07 2.03276e-05 -1.17969e-06
-2.79663e-07 2.01339e-05 -1.185e-06
4.36955e-07 -5.17531e-09 1.66404e-08
-4.30226e-07 2.0335e-05 -1.14886e-06
-2.76367e-07 2.01403e-05 -1.1929e-06
4.28645e-07 -5.03336e-09 1.66657e-08
-4.1832e-07 2.03419e-05 -1.1282e-06
4.18442e-07 -4.87783e-09 1.65301e-08
4.36958e-07 -5.29509e-09 -6.8081e-09
4.24048e-07 -4.72123e-09 2.16592e-08
4.4289e-07 -5.01695e-09 2.18349e-08
-2.07913e-07 1.89158e-05 -1.13841e-06
4.5547e-07 -5.22181e-09 2.12972e-08
-2.26587e-07 1.89085e-05 -1.13593e-06
4.59515e-07 -4.96611e-09 1.67496e-08
-1.92617e-07 1.8923e-05 -1.1425e-06
4.47113e-07 -4.77974e-09 1.69916e-08
4.34678e-07 -4.86327e-09 2.24713e-08
-1.8614e-07 1.89295e-05 -1.14459e-06
4.38392e-07 -4.66121e-09 1.65651e-08
-2.64403e-07 2.01473e-05 -1.20643e-06
-1.76157e-07 1.89361e-05 -1.13515e-06
4.28559e-07 -4.52104e-09 1.65863e-08
4.56304e-07 -5.48167e-09 1.63072e-08
4.6232e-07 -5.34676e-09 2.07965e-08
4.66141e-07 -5.08325e-09 1.66981e-08
4.22756e-07 -4.3963e-09 1.70902e-08
-4.03427e-07 2.03489e-05 -1.09689e-06
-2.73429e-07 2.01539e-05 -1.2193e-06
4.12823e-07 -4.75792e-09 1.64845e-08
4.24115e-07 -5.1116e-09 -5.95289e-09
4.12416e-07 -4.2352e-09 1.74523e-08
-4.041e-07 2.03556e-05 -1.1289e-06
-2.85765e-07 2.01605e-05 -1.23346e-06
4.0204e-07 -4.5816e-09 1.68894e-08
4.15428e-07 -4.96221e-09 -4.05046e-09
-2.97214e-07 2.01673e-05 -1.24282e-06
4.05324e-07 -4.13786e-09 1.72667e-08
-4.39446e-07 1.93225e-05 -1.06516e-06
-4.21607e-07 2.03618e-05 -1.1701e-06
4.00403e-07 -4.2317e-09 2.42131e-08
3.94703e-07 -4.46187e-09 1.71161e-08
4.05113e-07 -4.78767e-09 -2.61547e-09
-3.00446e-07 2.01739e-05 -1.24414e-06
-1.90639e-07 1.89631e-05 -1.16821e-06
4.05326e-07 -4.07908e-09 1.78182e-08
-4.24978e-07 2.03683e-05 -1.18532e-06
-4.36681e-07 1.93293e-05 -1.03865e-06
3.99879e-07 -4.65744e-09 -8.97171e-10
3.90731e-07 -4.08818e-09 2.46074e-08
3.9539e-07 -4.40578e-09 1.78031e-08
-1.20274e-07 1.51628e-05 -9.34873e-07
4.05341e-07 -3.74626e-09 1.26682e-08
4.07506e-07 -3.40075e-09 8.79046e-09
-1.12824e-07 1.5157e-05 -9.31652e-07
4.05718e-07 -3.77224e-09 1.25456e-08
4.07815e-07 -3.41988e-09 8.78066e-09
-1.08643e-07 1.51506e-05 -9.38164e-07
4.13163e-07 -3.84988e-09 1.28076e-08
4.15199e-07 -3.50082e-09 8.91311e-09
-1.05443e-07 1.51444e-05 -9.47324e-07
4.25328e-07 -3.61829e-09 8.85279e-09
-1.09137e-07 1.51383e-05 -9.49911e-07
4.23629e-07 -3.97158e-09 1.32218e-08
-8.68124e-08 1.71392e-05 -1.04696e-06
-9.19192e-08 1.71457e-05 -1.03169e-06
-1.05692e-07 1.71518e-05 -1.03769e-06
3.95303e-07 -3.62008e-09 1.28152e-08
3.977e-07 -3.27353e-09 9.194e-09
-1.20812e-07 1.7158e-05 -1.04029e-06
-6.96388e-08 1.15473e-05 -7.31543e-07
-4.32466e-08 1.0076e-05 -6.4988e-07
4.10705e-07 -2.5818e-09 4.62316e-09
4.03138e-07 -2.86821e-09 5.98094e-09
4.12656e-07 -2.99343e-09 5.28495e-09
4.20136e-07 -2.68099e-09 4.5123e-09
-6.22428e-08 1.15427e-05 -7.31256e-07
-3.39917e-08 1.00717e-05 -6.49787e-07
-6.1744e-08 1.32424e-05 -8.20778e-07
4.13002e-07 -3.01881e-09 5.11365e-09
4.20664e-07 -2.69784e-09 4.63617e-09
-4.97399e-08 1.15374e-05 -7.38446e-07
-3.12948e-08 1.00671e-05 -6.57289e-07
-5.46192e-08 1.32369e-05 -8.29322e-07
-5.50175e-08 1.32315e-05 -8.3901e-07
-5.92705e-08 1.32261e-05 -8.45424e-07
4.20452e-07 -3.10299e-09 4.99021e-09
4.28264e-07 -2.75449e-09 4.87695e-09
-4.53456e-08 1.15326e-05 -7.41199e-07
-2.96062e-08 1.00629e-05 -6.60417e-07
4.3814e-07 -2.86094e-09 4.59387e-09
4.30433e-07 -3.20947e-09 5.04257e-09
-4.70192e-08 1.15275e-05 -7.48857e-07
-3.24573e-08 1.00584e-05 -6.65953e-07
-6.39549e-08 1.32474e-05 -8.2201e-07
4.3156e-07 -3.70132e-09 8.63843e-09
4.30086e-07 -4.07794e-09 1.27496e-08
-7.82937e-08 1.71329e-05 -1.04011e-06
-7.8206e-08 1.71263e-05 -1.04319e-06
-1.08417e-07 1.51328e-05 -9.4915e-07
4.40145e-07 -4.19087e-09 1.2801e-08
4.41045e-07 -3.78691e-09 9.21379e-09
-7.77907e-08 1.71201e-05 -1.03316e-06
-1.17677e-07 1.51272e-05 -9.44352e-07
4.49082e-07 -4.31936e-09 1.20608e-08
4.49348e-07 -3.87438e-09 9.1877e-09
-7.11518e-08 1.71134e-05 -1.03156e-06
-1.09907e-07 1.51209e-05 -9.42603e-07
4.61642e-07 -3.99985e-09 9.32786e-09
4.61687e-07 -4.45376e-09 1.24379e-08
-8.36519e-08 1.7107e-05 -1.0267e-06
-1.07062e-07 1.51152e-05 -9.33038e-07
4.6836e-07 -4.08182e-09 9.27715e-09
4.68729e-07 -4.52936e-09 1.24138e-08
4.44476e-07 -2.92157e-09 4.72782e-09
4.36672e-07 -3.28101e-09 4.85715e-09
-6.05194e-08 1.32212e-05 -8.43178e-07
-4.29653e-08 1.15229e-05 -7.44694e-07
-3.12993e-08 1.00545e-05 -6.6203e-07
4.53629e-07 -3.00495e-09 4.789e-09
4.45988e-07 -3.34972e-09 5.09743e-09
-6.39484e-08 1.3216e-05 -8.38767e-07
-4.88239e-08 1.15186e-05 -7.37892e-07
-3.82009e-08 1.00506e-05 -6.58238e-07
-6.6399e-08 1.32056e-05 -8.36771e-07
4.61497e-07 -3.05403e-09 5.30573e-09
4.53894e-07 -3.41936e-09 5.08802e-09
-6.40422e-08 1.32107e-05 -8.36021e-07
-3.86738e-08 1.00464e-05 -6.56828e-07
-4.25821e-08 1.15135e-05 -7.37273e-07
4.73521e-07 -3.15302e-09 5.58744e-09
4.65948e-07 -3.52701e-09 5.16668e-09
-4.04363e-08 1.00423e-05 -6.61126e-07
-4.35045e-08 1.15088e-05 -7.42362e-07
4.80212e-07 -3.20035e-09 6.06475e-09
4.72606e-07 -3.59811e-09 5.20794e-09
4.42729e-07 -5.41387e-09 -8.04975e-09
-4.30845e-07 2.03187e-05 -1.15952e-06
4.66121e-07 -5.58037e-09 1.74443e-08
4.52852e-07 -5.54207e-09 -7.17527e-09
-4.27195e-07 1.93146e-05 -1.07284e-06
-4.56176e-07 1.93089e-05 -1.06084e-06
-4.28251e-07 2.03103e-05 -1.14276e-06
4.76399e-07 -5.66771e-09 1.88604e-08
4.64143e-07 -5.66191e-09 -5.34057e-09
-4.306e-07 1.92996e-05 -1.03722e-06
-4.41669e-07 2.03016e-05 -1.16027e-06
-4.82609e-07 1.92843e-05 -9.96519e-07
-4.22439e-07 1.92914e-05 -9.67664e-07
4.88671e-07 -5.81684e-09 1.98527e-08
4.78069e-07 -5.78448e-09 -3.56731e-09
-4.3401e-07 2.0293e-05 -1.12181e-06
4.83919e-07 -5.88489e-09 -4.22834e-09
4.96505e-07 -5.90835e-09 2.02179e-08
-4.46649e-07 2.02855e-05 -1.14139e-06
-3.21602e-07 2.01121e-05 -1.15591e-06
-2.27626e-07 1.89011e-05 -1.10921e-06
4.71858e-07 -5.44685e-09 2.19672e-08
4.75361e-07 -5.18901e-09 1.76533e-08
-3.13389e-07 2.0104e-05 -1.15811e-06
-2.29331e-07 1.88941e-05 -1.11112e-06
4.81277e-07 -5.55765e-09 2.33702e-08
4.84857e-07 -5.28381e-09 1.8983e-08
-3.25823e-07 2.0096e-05 -1.18424e-06
-2.23465e-07 1.88859e-05 -1.1154e-06
4.93209e-07 -5.68896e-09 2.45055e-08
4.96708e-07 -5.41544e-09 2.0015e-08
-3.05263e-07 2.00871e-05 -1.15418e-06
-3.26554e-07 2.00789e-05 -1.15925e-06
-2.30655e-07 1.88785e-05 -1.11822e-06
5.0058e-07 -5.77734e-09 2.50415e-08
5.03863e-07 -5.50272e-09 2.06831e-08
-2.43028e-07 1.88709e-05 -1.12952e-06
4.92627e-07 -6.07587e-09 -6.51804e-09
5.08725e-07 -6.08697e-09 2.02925e-08
-5.11647e-07 1.92765e-05 -1.02167e-06
-4.35804e-07 2.02769e-05 -1.1521e-06
4.97611e-07 -6.2135e-09 -8.33956e-09
5.1621e-07 -6.21188e-09 1.99684e-08
-5.32486e-07 1.92684e-05 -1.03756e-06
-4.03164e-07 2.02678e-05 -1.12311e-06
-5.41837e-07 1.92498e-05 -1.01766e-06
5.0361e-07 -6.33728e-09 -9.47056e-09
5.2501e-07 -6.31178e-09 2.01793e-08
-5.28411e-07 1.92591e-05 -1.04022e-06
-4.2073e-07 2.02592e-05 -1.14346e-06
5.12639e-07 -6.48312e-09 -1.04049e-08
5.35706e-07 -6.42573e-09 2.0479e-08
-4.21188e-07 2.02502e-05 -1.11455e-06
5.19013e-07 -6.61045e-09 -1.21686e-08
5.43785e-07 -6.53934e-09 2.05846e-08
5.11644e-07 -5.93105e-09 2.56344e-08
5.14884e-07 -5.65052e-09 2.12723e-08
-3.28452e-07 2.007e-05 -1.16792e-06
-2.45494e-07 1.88622e-05 -1.13042e-06
5.19215e-07 -6.04401e-09 2.58096e-08
5.22199e-07 -5.75858e-09 2.17622e-08
-3.26662e-07 2.00615e-05 -1.1638e-06
-2.48141e-07 1.88539e-05 -1.13212e-06
5.27879e-07 -6.12872e-09 2.74547e-08
5.30035e-07 -5.84791e-09 2.264e-08
-3.23816e-07 2.0053e-05 -1.18644e-06
-3.28759e-07 2.00443e-05 -1.19825e-06
-2.34153e-07 1.88463e-05 -1.11198e-06
5.38182e-07 -6.249e-09 2.84047e-08
5.40275e-07 -5.96828e-09 2.32859e-08
-2.35219e-07 1.88378e-05 -1.12048e-06
5.45457e-07 -6.35346e-09 2.86308e-08
5.47483e-07 -6.09315e-09 2.30132e-08
-1.01415e-07 1.71003e-05 -1.02905e-06
-1.01859e-07 1.51091e-05 -9.26739e-07
4.77491e-07 -4.1873e-09 9.21973e-09
4.78124e-07 -4.64412e-09 1.21666e-08
-1.15165e-07 1.70935e-05 -1.03967e-06
-1.00602e-07 1.51024e-05 -9.3324e-07
4.87486e-07 -4.74999e-09 1.24838e-08
4.87011e-07 -4.29254e-09 9.14031e-09
-1.36817e-07 1.7086e-05 -1.04847e-06
-9.26423e-08 1.50957e-05 -9.29735e-07
4.98629e-07 -4.87973e-09 1.2987e-08
4.98438e-07 -4.41754e-09 9.38132e-09
-1.46799e-07 1.70791e-05 -1.0609e-06
-9.19377e-08 1.50894e-05 -9.27834e-07
-1.58478e-07 1.70717e-05 -1.07042e-06
5.05434e-07 -4.9795e-09 1.33143e-08
5.05933e-07 -4.48167e-09 9.77477e-09
-9.14158e-08 1.50824e-05 -9.38633e-07
-6.46043e-08 1.31999e-05 -8.40556e-07
-4.11152e-08 1.00381e-05 -6.59772e-07
-3.96714e-08 1.15038e-05 -7.41839e-07
4.89234e-07 -3.27821e-09 6.26964e-09
4.81516e-07 -3.68202e-09 5.49793e-09
-6.51861e-08 1.31939e-05 -8.44091e-07
-4.18438e-08 1.00334e-05 -6.62229e-07
-4.01023e-08 1.14985e-05 -7.47187e-07
4.90863e-07 -3.76879e-09 5.61566e-09
4.98707e-07 -3.36696e-09 6.32252e-09
-6.38063e-08 1.31886e-05 -8.41044e-07
-6.60337e-08 1.31828e-05 -8.44239e-07
-6.35012e-08 1.31765e-05 -8.47713e-07
-4.82124e-08 1.00288e-05 -6.65422e-07
-3.89868e-08 1.14935e-05 -7.46147e-07
5.01933e-07 -3.86544e-09 5.92765e-09
5.09753e-07 -3.44804e-09 6.86377e-09
-4.72519e-08 1.0024e-05 -6.67265e-07
-4.15383e-08 1.1488e-05 -7.49463e-07
5.09078e-07 -3.90722e-09 6.58341e-09
5.16727e-07 -3.49058e-09 7.38742e-09
-4.70176e-08 1.0019e-05 -6.72239e-07
-4.21026e-08 1.14822e-05 -7.59044e-07
5.15872e-07 -5.10919e-09 1.40806e-08
5.16939e-07 -4.58046e-09 1.02617e-08
-1.65793e-07 1.70641e-05 -1.06977e-06
-8.62184e-08 1.50752e-05 -9.47298e-07
5.23004e-07 -5.23556e-09 1.46264e-08
5.24626e-07 -4.65523e-09 1.05218e-08
-1.72382e-07 1.70564e-05 -1.07212e-06
-8.19209e-08 1.5068e-05 -9.52424e-07
5.30079e-07 -5.33314e-09 1.5358e-08
5.3206e-07 -4.72766e-09 1.06363e-08
-1.67841e-07 1.70491e-05 -1.06772e-06
-1.68667e-07 1.70409e-05 -1.08197e-06
-7.77397e-08 1.50613e-05 -9.53974e-07
5.39932e-07 -5.45986e-09 1.59583e-08
5.42572e-07 -4.84891e-09 1.06996e-08
-7.8772e-08 1.50539e-05 -9.6467e-07
5.46723e-07 -5.55381e-09 1.61524e-08
5.4983e-07 -4.95131e-09 1.06802e-08
5.19346e-07 -3.98141e-09 7.21119e-09
5.26798e-07 -3.55359e-09 7.99486e-09
-5.94495e-08 1.31703e-05 -8.52278e-07
-4.6523e-08 1.00142e-05 -6.7481e-07
-3.86326e-08 1.1477e-05 -7.5738e-07
5.26873e-07 -4.03513e-09 7.72199e-09
5.34535e-07 -3.60252e-09 8.3978e-09
-5.62514e-08 1.31636e-05 -8.53611e-07
-5.78261e-08 1.31575e-05 -8.60881e-07
-7.05357e-08 1.3151e-05 -8.70546e-07
-4.45281e-08 1.00093e-05 -6.72356e-07
-3.53899e-08 1.14715e-05 -7.56926e-07
5.33935e-07 -4.07267e-09 8.3407e-09
5.41329e-07 -3.64833e-09 8.64689e-09
-4.31545e-08 1.00046e-05 -6.72291e-07
-3.57051e-08 1.14662e-05 -7.58666e-07
5.44392e-07 -4.15571e-09 8.84127e-09
5.51878e-07 -3.72864e-09 9.01115e-09
-4.85558e-08 9.99969e-06 -6.72727e-07
-4.3066e-08 1.14607e-05 -7.62194e-07
5.51488e-07 -4.22748e-09 9.13233e-09
5.5899e-07 -3.78532e-09 9.51164e-09
-2.20797e-08 8.78943e-06 -5.71995e-07
-1.69176e-08 7.62021e-06 -5.16443e-07
4.18708e-07 -1.80004e-09 5.16789e-09
4.15923e-07 -2.21586e-09 3.63681e-09
4.27799e-07 -1.88558e-09 4.68697e-09
4.25199e-07 -2.30443e-09 3.43514e-09
-1.85148e-08 8.78619e-06 -5.67679e-07
-1.56846e-08 7.61725e-06 -5.13898e-07
4.29018e-07 -1.92594e-09 4.41365e-09
4.26173e-07 -2.32456e-09 3.49708e-09
-1.76625e-08 8.78263e-06 -5.69755e-07
-1.52589e-08 7.61432e-06 -5.12235e-07
4.37237e-07 -1.97102e-09 4.57256e-09
4.3427e-07 -2.38168e-09 3.59463e-09
-1.41713e-08 7.61118e-06 -5.1268e-07
-1.46772e-08 8.77855e-06 -5.75331e-07
4.4731e-07 -2.03974e-09 4.49578e-09
4.44472e-07 -2.48515e-09 3.21059e-09
-1.46017e-08 7.60776e-06 -5.15194e-07
-1.59159e-08 8.77458e-06 -5.79882e-07
-1.5106e-08 6.51296e-06 -4.35419e-07
-1.46752e-08 5.42757e-06 -3.65156e-07
4.3557e-07 -1.29619e-09 3.19644e-09
4.30752e-07 -1.60323e-09 3.09619e-09
-1.35e-08 6.51036e-06 -4.35464e-07
-1.42912e-08 5.42538e-06 -3.65098e-07
4.36861e-07 -1.31986e-09 3.00837e-09
4.40594e-07 -1.19471e-09 1.11242e-09
4.32019e-07 -1.61413e-09 3.25566e-09
-1.3465e-08 5.42325e-06 -3.63952e-07
-1.15501e-08 6.50753e-06 -4.36453e-07
4.40328e-07 -1.62924e-09 3.82652e-09
4.45096e-07 -1.33823e-09 3.4106e-09
4.48914e-07 -1.21184e-09 1.47362e-09
-1.01605e-08 6.50469e-06 -4.38658e-07
-1.20374e-08 5.42073e-06 -3.66112e-07
4.50402e-07 -1.6549e-09 4.36925e-09
4.55077e-07 -1.37161e-09 3.69425e-09
4.5891e-07 -1.23855e-09 1.84394e-09
-9.6533e-09 6.50171e-06 -4.4234e-07
-1.20316e-08 5.4183e-06 -3.68223e-07
4.5401e-07 -2.08236e-09 4.74307e-09
4.51317e-07 -2.54547e-09 3.24823e-09
-1.41392e-08 8.77072e-06 -5.83495e-07
-1.23123e-08 7.60429e-06 -5.17563e-07
4.63211e-07 -2.14565e-09 4.61565e-09
4.60573e-07 -2.61651e-09 3.40532e-09
-1.23376e-08 7.60084e-06 -5.19196e-07
-1.59889e-08 8.76694e-06 -5.83657e-07
4.70647e-07 -2.1877e-09 4.79491e-09
4.68719e-07 -2.67334e-09 3.59664e-09
-1.16199e-08 7.59765e-06 -5.16314e-07
-1.34458e-08 8.76267e-06 -5.85134e-07
4.80678e-07 -2.75713e-09 4.25153e-09
4.8255e-07 -2.25875e-09 4.90047e-09
-1.24041e-08 7.59453e-06 -5.18682e-07
-1.37637e-08 8.75897e-06 -5.90412e-07
4.87314e-07 -2.79762e-09 5.04487e-09
4.89489e-07 -2.29698e-09 5.20026e-09
4.5738e-07 -1.67263e-09 4.8547e-09
4.62121e-07 -1.39534e-09 3.96857e-09
4.66118e-07 -1.25547e-09 2.27554e-09
-9.07478e-09 6.49895e-06 -4.41466e-07
-1.1422e-08 5.41604e-06 -3.66777e-07
4.71267e-07 -1.43343e-09 4.05553e-09
4.75346e-07 -1.28623e-09 2.52441e-09
4.66428e-07 -1.71189e-09 5.13282e-09
-7.47951e-09 6.49584e-06 -4.44265e-07
-1.01601e-08 5.41351e-06 -3.6728e-07
4.73517e-07 -1.74372e-09 5.37591e-09
4.78018e-07 -1.45557e-09 4.357e-09
4.81904e-07 -1.30753e-09 2.89075e-09
-9.33818e-09 5.41115e-06 -3.66605e-07
-5.54779e-09 6.49271e-06 -4.46805e-07
4.85294e-07 -1.7946e-09 5.67475e-09
4.89533e-07 -1.4961e-09 4.62322e-09
4.93422e-07 -1.34172e-09 3.27178e-09
-5.81322e-09 6.48989e-06 -4.50116e-07
-8.45299e-09 5.40868e-06 -3.68281e-07
4.92234e-07 -1.82561e-09 6.10489e-09
4.96443e-07 -1.51191e-09 5.11268e-09
5.00378e-07 -1.35961e-09 3.75058e-09
-2.77176e-09 4.34614e-06 -2.91869e-07
-3.5889e-09 3.26182e-06 -2.20465e-07
4.39257e-07 -1.17181e-09 1.12138e-09
4.4419e-07 -5.16677e-10 4.93784e-09
4.41315e-07 -8.01743e-10 3.07858e-09
-1.66736e-09 4.34432e-06 -2.92196e-07
-3.10297e-09 3.26045e-06 -2.20693e-07
4.42947e-07 -8.1319e-10 3.04913e-09
4.45736e-07 -5.21878e-10 5.11369e-09
-6.58896e-10 4.34252e-06 -2.92779e-07
-2.77846e-09 3.25912e-06 -2.2061e-07
4.51588e-07 -8.3305e-10 3.1517e-09
4.54436e-07 -5.34495e-10 5.30444e-09
-7.23681e-10 4.34051e-06 -2.95488e-07
-2.32218e-09 3.25764e-06 -2.21991e-07
4.61703e-07 -8.56829e-10 3.29814e-09
4.64563e-07 -5.48056e-10 5.55029e-09
-2.15846e-09 3.25615e-06 -2.23811e-07
-4.23982e-10 4.33843e-06 -2.98595e-07
-2.57995e-09 2.17508e-06 -1.46449e-07
-1.9674e-10 1.08743e-06 -7.37245e-08
4.45135e-07 -3.64078e-10 2.40949e-09
4.45527e-07 -3.10658e-10 -1.86074e-09
-2.24164e-09 2.17409e-06 -1.4709e-07
-2.71055e-10 1.08696e-06 -7.38039e-08
4.46847e-07 -3.69495e-10 2.53912e-09
4.47238e-07 -3.13532e-10 -1.72147e-09
-2.13112e-09 2.17317e-06 -1.47574e-07
-2.78248e-10 1.0865e-06 -7.39332e-08
4.55568e-07 -3.80588e-10 2.66652e-09
4.55959e-07 -3.22688e-10 -1.6756e-09
-1.96402e-09 2.17216e-06 -1.48862e-07
-2.70205e-10 1.08601e-06 -7.44025e-08
4.66045e-07 -3.26725e-10 -1.49933e-09
4.65536e-07 -3.91555e-10 2.83982e-09
-1.97572e-09 2.17115e-06 -1.50343e-07
-2.60069e-10 1.08547e-06 -7.51954e-08
-1.54797e-14 -1.4073e-11 9.63907e-13
2.12362e-14 -1.40669e-11 9.57394e-13
4.72111e-07 -5.59858e-10 5.73251e-09
4.68991e-07 -8.74507e-10 3.45847e-09
-9.17889e-10 4.33658e-06 -2.98966e-07
-2.07095e-09 3.25469e-06 -2.24251e-07
4.78324e-07 -9.03461e-10 3.48457e-09
4.81346e-07 -5.77705e-10 5.87476e-09
-6.35058e-10 4.33449e-06 -3.00243e-07
-1.40259e-09 3.25313e-06 -2.25078e-07
4.84836e-07 -9.22705e-10 3.61246e-09
4.87743e-07 -5.94462e-10 5.98877e-09
-6.81472e-10 4.33255e-06 -3.00888e-07
-1.14977e-09 3.2517e-06 -2.25117e-07
4.96556e-07 -9.51025e-10 3.72936e-09
4.99438e-07 -6.12796e-10 6.16837e-09
-1.20335e-09 3.25029e-06 -2.26133e-07
-2.36845e-10 4.33053e-06 -3.03129e-07
5.06553e-07 -6.27832e-10 6.34902e-09
5.03493e-07 -9.678e-10 3.95165e-09
4.73116e-07 -3.9743e-10 3.05738e-09
4.73498e-07 -3.34436e-10 -1.44316e-09
-1.92356e-09 2.17018e-06 -1.50596e-07
-3.86356e-10 1.08502e-06 -7.51881e-08
4.8248e-07 -4.06491e-10 3.28459e-09
4.8284e-07 -3.39597e-10 -1.26336e-09
-1.64814e-09 2.16914e-06 -1.51035e-07
-3.21142e-10 1.0845e-06 -7.53383e-08
4.88759e-07 -4.11125e-10 3.53296e-09
4.89046e-07 -3.45069e-10 -1.12281e-09
-1.60461e-09 2.16817e-06 -1.51259e-07
-3.85435e-10 1.08402e-06 -7.53881e-08
5.00389e-07 -4.17082e-10 3.82442e-09
5.00627e-07 -3.49202e-10 -9.4646e-10
-1.5474e-09 2.16723e-06 -1.51876e-07
-2.91827e-10 1.08351e-06 -7.57839e-08
5.07345e-07 -4.20778e-10 4.11422e-09
5.07562e-07 -3.59568e-10 -8.6975e-10
-1.94628e-14 -1.46895e-11 1.01903e-12
-1.18312e-08 7.59123e-06 -5.19731e-07
-1.39284e-08 8.75521e-06 -5.9135e-07
4.96232e-07 -2.83967e-09 5.91696e-09
4.98817e-07 -2.33756e-09 5.85381e-09
-9.88237e-09 7.5876e-06 -5.19953e-07
-1.32229e-08 8.75116e-06 -5.89975e-07
5.05659e-07 -2.89367e-09 6.4949e-09
5.08976e-07 -2.38786e-09 6.17482e-09
-1.02921e-08 7.58423e-06 -5.17148e-07