# vtk DataFile Version 3.0
vtk output
ASCII
DATASET POLYDATA
POINTS 14948 float
0.185831 0.749692 -0.0428125
0.25812 0.7543 -0.0423924
0.185962 0.739706 -0.0421363
0.196364 0.744635 -0.0421184
0.206727 0.749556 -0.0421308
0.237713 0.754363 -0.0421241
0.268324 0.749266 -0.0419834
0.278441 0.754216 -0.0422659
0.298651 0.754139 -0.0422802
0.186087 0.729716 -0.0414539
0.217132 0.744495 -0.0416748
0.227443 0.749428 -0.0417929
0.247987 0.749351 -0.041943
0.258174 0.744318 -0.0417708
0.278479 0.744232 -0.0416147
0.298684 0.744156 -0.0416423
0.288563 0.749187 -0.0419197
0.308771 0.749117 -0.041993
0.196485 0.734647 -0.0414213
0.227519 0.73944 -0.0411954
0.165522 0.749828 -0.0412677
0.175919 0.744767 -0.0412612
0.206829 0.739575 -0.0414709
0.237781 0.744387 -0.0415565
0.248041 0.739366 -0.0413575
0.268371 0.739278 -0.04135
0.2886 0.739198 -0.0412639
0.308802 0.739127 -0.0413581
0.206922 0.729589 -0.0408683
0.217221 0.734513 -0.0410371
0.23784 0.734404 -0.040953
0.258224 0.73433 -0.0411365
0.278509 0.734246 -0.0409619
0.298704 0.734169 -0.0409976
0.15517 0.744901 -0.0405358
0.186235 0.71974 -0.0407231
0.196613 0.724671 -0.0407221
0.176034 0.734781 -0.04063
0.165658 0.739843 -0.0406428
0.227591 0.729464 -0.0405916
0.258269 0.724347 -0.0404967
0.248085 0.729386 -0.0407414
0.268405 0.729298 -0.0407075
0.28862 0.729219 -0.0406077
0.308813 0.729148 -0.0407047
0.144711 0.749954 -0.0402701
0.207023 0.719606 -0.0402445
0.21731 0.724536 -0.0404182
0.237904 0.72443 -0.0403768
0.248133 0.719397 -0.0401217
0.278539 0.724268 -0.0403077
0.298724 0.724191 -0.0403639
0.318859 0.754053 -0.0426608
0.318871 0.744075 -0.0419954
0.339023 0.754002 -0.0427406
0.359225 0.753936 -0.0426219
0.379511 0.753897 -0.0428399
0.399605 0.753866 -0.0427003
0.328947 0.749042 -0.042393
0.379524 0.743918 -0.042177
0.349165 0.748982 -0.042311
0.369313 0.748929 -0.0423074
0.389564 0.748896 -0.042416
0.328992 0.739055 -0.0417449
0.389576 0.738912 -0.0417575
0.339077 0.744028 -0.0420933
0.359263 0.743963 -0.0419507
0.39961 0.743894 -0.0420245
0.318883 0.734087 -0.041325
0.339101 0.734041 -0.0414125
0.349202 0.738997 -0.0416403
0.369333 0.738952 -0.0416341
0.379529 0.733943 -0.0415006
0.399607 0.733913 -0.0413536
0.329038 0.729085 -0.0410519
0.349217 0.729021 -0.040952
0.369339 0.728976 -0.0409472
0.389568 0.728942 -0.0410753
0.359278 0.733989 -0.0412631
0.318948 0.72412 -0.0406451
0.339139 0.724071 -0.0407145
0.359295 0.724011 -0.0405743
0.379525 0.723972 -0.0408107
0.399591 0.723942 -0.0406736
0.379529 0.713988 -0.0401587
0.329088 0.719107 -0.0403728
0.349245 0.719043 -0.0402684
0.369351 0.718998 -0.0402566
0.389554 0.718963 -0.0403996
0.409594 0.748867 -0.0423667
0.419707 0.75384 -0.0427629
0.439809 0.753824 -0.0428586
0.459893 0.753819 -0.0427478
0.47997 0.753821 -0.042726
0.4398 0.743849 -0.0421869
0.429766 0.748846 -0.0424262
0.449839 0.748836 -0.0424487
0.469914 0.748835 -0.0423872
0.489982 0.748839 -0.0424117
0.429761 0.738866 -0.0417714
0.449829 0.738856 -0.0417892
0.469899 0.738854 -0.0417358
0.489963 0.738858 -0.0417654
0.419704 0.743868 -0.0420996
0.459862 0.743848 -0.0420873
0.479927 0.74385 -0.0420705
0.40958 0.73889 -0.0417061
0.419709 0.733888 -0.0414209
0.439784 0.733876 -0.0415072
0.459852 0.73387 -0.0414129
0.479913 0.733871 -0.0413991
0.409594 0.728914 -0.0410233
0.429757 0.728898 -0.0410915
0.449811 0.728888 -0.0411081
0.469869 0.728885 -0.0410604
0.489921 0.728889 -0.0410978
0.419714 0.723918 -0.0407405
0.439774 0.723906 -0.040818
0.459828 0.723901 -0.0407314
0.479876 0.723902 -0.0407211
0.5 0.75383 -0.0428099
0.409612 0.718936 -0.0403393
0.439772 0.713923 -0.0401558
0.429753 0.71892 -0.0404097
0.449793 0.71891 -0.0404218
0.469839 0.718908 -0.040383
0.489878 0.718911 -0.040423
0.520031 0.753822 -0.0427433
0.540107 0.75382 -0.0427684
0.560191 0.753824 -0.0428774
0.580293 0.753839 -0.0427874
0.499983 0.743855 -0.0421521
0.5602 0.743849 -0.0422034
0.510019 0.74884 -0.0424274
0.530086 0.748835 -0.0424046
0.550162 0.748837 -0.0424648
0.570234 0.748846 -0.0424459
0.510037 0.73886 -0.0417797
0.530101 0.738855 -0.0417518
0.550172 0.738856 -0.0418035
0.57024 0.738866 -0.0417887
0.520073 0.743851 -0.0420861
0.540138 0.743849 -0.0421061
0.580296 0.743868 -0.0421214
0.590406 0.748867 -0.0423665
0.500031 0.73388 -0.0414966
0.520087 0.733872 -0.0414132
0.540148 0.733871 -0.0414303
0.560216 0.733876 -0.0415217
0.580291 0.733889 -0.0414404
0.59042 0.73889 -0.0417058
0.51008 0.72889 -0.0411097
0.530131 0.728886 -0.0410743
0.55019 0.728888 -0.0411198
0.570244 0.728898 -0.0411062
0.590406 0.728914 -0.041022
0.50008 0.723909 -0.0408214
0.520124 0.723902 -0.0407339
0.540171 0.723901 -0.0407481
0.560226 0.723906 -0.0408317
0.580286 0.723918 -0.0407589
0.500099 0.713925 -0.0401684
0.560228 0.713922 -0.0401704
0.510121 0.718911 -0.0404361
0.530161 0.718907 -0.0403986
0.550207 0.718909 -0.0404361
0.570247 0.718918 -0.0404267
0.590388 0.718936 -0.040338
0.600395 0.753866 -0.0427004
0.620489 0.753897 -0.0428402
0.640774 0.753936 -0.0426217
0.660977 0.754002 -0.0427414
0.620476 0.743918 -0.0421773
0.610436 0.748895 -0.0424162
0.630687 0.748928 -0.042307
0.650835 0.748982 -0.0423108
0.671052 0.749042 -0.0423929
0.610424 0.738912 -0.0417577
0.60039 0.743894 -0.0420245
0.640737 0.743962 -0.041951
0.660923 0.744029 -0.0420945
0.671008 0.739056 -0.0417453
0.681141 0.754054 -0.042661
0.681129 0.744075 -0.041996
0.600393 0.733913 -0.0413536
0.62047 0.733943 -0.0415009
0.630667 0.738951 -0.0416345
0.650797 0.738997 -0.0416406
0.660898 0.734042 -0.0414138
0.681117 0.734088 -0.0413257
0.610432 0.728942 -0.0410746
0.630661 0.728976 -0.0409468
0.650783 0.729021 -0.0409516
0.640721 0.733988 -0.0412635
0.670962 0.729084 -0.0410511
0.600409 0.723942 -0.0406727
0.620474 0.723972 -0.0408101
0.640705 0.72401 -0.0405739
0.66086 0.724071 -0.0407145
0.681051 0.72412 -0.0406446
0.620471 0.713988 -0.0401582
0.610446 0.718963 -0.0403989
0.630649 0.718998 -0.0402563
0.650755 0.719043 -0.040268
0.670912 0.719107 -0.0403721
0.814169 0.749692 -0.0428139
0.74188 0.7543 -0.0423934
0.731675 0.749267 -0.041984
0.701349 0.75414 -0.0422798
0.721558 0.754216 -0.0422661
0.762287 0.754363 -0.042125
0.803636 0.744635 -0.0421199
0.814038 0.739706 -0.0421378
0.793273 0.749557 -0.0421321
0.701316 0.744156 -0.0416429
0.721521 0.744232 -0.0416156
0.741826 0.744319 -0.0417722
0.691229 0.749118 -0.0419921
0.711437 0.749188 -0.0419195
0.752013 0.749352 -0.0419445
0.813913 0.729716 -0.0414543
0.782869 0.744495 -0.0416761
0.772557 0.749429 -0.041794
0.691198 0.739128 -0.0413586
0.711399 0.739198 -0.0412647
0.731629 0.739278 -0.0413514
0.751959 0.739367 -0.0413591
0.762219 0.744387 -0.0415576
0.772481 0.73944 -0.0411967
0.803516 0.734647 -0.041423
0.793171 0.739575 -0.0414724
0.824081 0.744768 -0.0412629
0.834478 0.749828 -0.0412696
0.701296 0.73417 -0.0409983
0.72149 0.734246 -0.0409628
0.741776 0.734331 -0.0411379
0.76216 0.734404 -0.0409543
0.793078 0.729589 -0.0408683
0.782779 0.734513 -0.0410386
0.74173 0.724347 -0.0404967
0.691187 0.729148 -0.040704
0.71138 0.729219 -0.0406074
0.731595 0.729298 -0.0407074
0.751914 0.729386 -0.0407415
0.772409 0.729463 -0.0405914
0.813765 0.71974 -0.0407231
0.803387 0.72467 -0.0407222
0.823966 0.734782 -0.0406318
0.834342 0.739843 -0.0406449
0.84483 0.744902 -0.040537
0.751867 0.719397 -0.0401219
0.701276 0.724191 -0.0403635
0.721461 0.724268 -0.0403075
0.762096 0.724429 -0.0403765
0.792976 0.719606 -0.0402445
0.78269 0.724535 -0.0404182
0.855289 0.749955 -0.0402712
0.122459 0.87 -0.0449625
0.122636 0.860004 -0.0442965
0.122811 0.850022 -0.0436061
0.122998 0.840023 -0.0429031
0.123174 0.830035 -0.0422437
0.123253 0.820034 -0.0418571
0.112893 0.875 -0.0419342
0.122265 0.879992 -0.0456157
0.122059 0.889979 -0.0462515
0.121859 0.899967 -0.0468381
0.12169 0.909952 -0.0473884
0.121556 0.919932 -0.0479014
0.121466 0.929903 -0.0483833
0.111881 0.934847 -0.0455344
0.111998 0.924886 -0.0449786
0.112146 0.914903 -0.0444487
0.112319 0.904928 -0.0438522
0.112529 0.894952 -0.0431893
0.102069 0.929953 -0.0426316
0.112759 0.884975 -0.0425108
0.102258 0.919975 -0.0420394
0.102396 0.909989 -0.0415347
0.123282 0.810032 -0.0415661
0.113041 0.865024 -0.041361
0.123306 0.800043 -0.0412723
0.102546 0.900011 -0.0409892
0.123423 0.790044 -0.0407626
0.113163 0.855053 -0.0408104
0.102688 0.890029 -0.0404343
0.113295 0.845066 -0.040278
0.123571 0.780063 -0.0402333
0.121331 0.939868 -0.0489284
0.101892 0.939917 -0.0432128
0.111756 0.944805 -0.0460406
0.0921238 0.944958 -0.0403663
0.12118 0.949833 -0.0494812
0.101714 0.949879 -0.04379
0.111615 0.954761 -0.0465509
0.0919753 0.954931 -0.0408682
0.121025 0.959799 -0.0500529
0.101567 0.959837 -0.0443083
0.111486 0.964714 -0.0470623
0.0918259 0.964895 -0.0414023
0.120841 0.969765 -0.0506841
0.101401 0.96979 -0.0448659
0.111338 0.974663 -0.0476377
0.0915983 0.97485 -0.0420617
0.101144 0.979737 -0.0455072
0.111171 0.984635 -0.0481752
0.101006 0.989721 -0.0460427
0.111036 0.994618 -0.0487288
0.100879 0.9997 -0.0465991
0.0908687 1.01475 -0.0445065
0.110916 1.0046 -0.0493157
0.10074 1.00967 -0.047189
0.110785 1.01458 -0.0499458
0.100626 1.01964 -0.0477455
0.0909967 1.00478 -0.0439236
0.0911386 0.994799 -0.0433189
0.0913709 0.984825 -0.0426788
0.120541 0.97974 -0.0515
0.120399 0.989695 -0.0520845
0.12027 0.999655 -0.0526457
0.120155 1.00962 -0.0532197
0.120048 1.0196 -0.0537884
0.0907545 1.02473 -0.0450179
0.100517 1.02961 -0.0483092
0.110626 1.02454 -0.0505726
0.119927 1.02959 -0.0543752
0.0814203 1.02996 -0.0413597
0.0815622 1.01999 -0.0407892
0.0816725 1.01 -0.0402917
0.090644 1.0347 -0.0455303
0.110485 1.03451 -0.051172
0.100397 1.03958 -0.0488321
0.0812556 1.03991 -0.0419556
0.119793 1.03957 -0.0549402
0.0905592 1.04465 -0.046042
0.110355 1.04446 -0.0517674
0.08103 1.04984 -0.0426425
0.0904191 1.05461 -0.0465749
0.0809179 1.05978 -0.0431992
0.0903045 1.06453 -0.0471144
0.0808282 1.06972 -0.0436923
0.0901525 1.07446 -0.0477038
0.0807285 1.07968 -0.0441634
0.0806052 1.08964 -0.0447044
0.0900166 1.08441 -0.0483131
0.100226 1.04952 -0.0494699
[...]
POINT_DATA 14948
VECTORS alpha float
1.88155e-06 -1.33289e-08 7.43277e-08
-5.69389e-08 1.39043e-05 -9.57867e-07
1.83576e-06 -1.26996e-08 7.17142e-08
-1.41592e-07 1.86437e-05 -1.27308e-06
1.95212e-06 -1.26875e-08 5.89802e-08
-4.8366e-08 1.57732e-05 -1.05391e-06
2.12805e-06 -8.94955e-09 1.72784e-08
-2.50219e-08 1.21137e-05 -8.35267e-07
-1.13506e-08 1.05282e-05 -7.24253e-07
1.79161e-06 -1.20642e-08 6.94004e-08
-8.3198e-08 1.75087e-05 -1.17933e-06
2.01917e-06 -1.15753e-08 3.50373e-08
2.07472e-06 -9.66095e-09 1.91629e-08
-4.75856e-08 1.39386e-05 -9.65402e-07
-2.15868e-08 1.21459e-05 -8.41011e-07
-8.20991e-09 1.05572e-05 -7.24907e-07
2.17953e-06 -7.75683e-09 6.07387e-09
2.2304e-06 -6.65298e-09 2.46303e-10
-1.3659e-07 1.86868e-05 -1.29778e-06
1.96971e-06 -1.09457e-08 3.51865e-08
1.78417e-06 -1.20524e-08 -7.39769e-09
-1.51435e-07 1.88162e-05 -1.2304e-06
1.9044e-06 -1.21541e-08 5.74513e-08
-3.85245e-08 1.58103e-05 -1.06664e-06
2.02304e-06 -9.01802e-09 2.09536e-08
2.07617e-06 -8.53499e-09 1.95975e-08
2.12676e-06 -7.39965e-09 7.68062e-09
2.17642e-06 -6.29237e-09 2.39743e-09
1.85736e-06 -1.15635e-08 5.63321e-08
-7.79699e-08 1.75482e-05 -1.18871e-06
-3.8008e-08 1.58487e-05 -1.07372e-06
-4.18952e-08 1.3973e-05 -9.6889e-07
-1.80399e-08 1.21766e-05 -8.47754e-07
-4.1125e-09 1.05849e-05 -7.26673e-07
-1.68336e-07 1.78452e-05 -1.16491e-06
1.74939e-06 -1.14792e-08 6.5826e-08
-1.24733e-07 1.87251e-05 -1.29707e-06
-1.48682e-07 1.88599e-05 -1.25725e-06
1.74087e-06 -1.14675e-08 -5.82678e-09
1.92011e-06 -1.04198e-08 3.62888e-08
-3.85213e-08 1.40057e-05 -9.65853e-07
1.97274e-06 -8.60672e-09 2.29904e-08
2.02532e-06 -8.16899e-09 2.1363e-08
2.07512e-06 -7.16813e-09 9.1319e-09
2.12393e-06 -6.10923e-09 4.06014e-09
1.70347e-06 -1.125e-08 -6.01343e-08
1.81281e-06 -1.09315e-08 5.51345e-08
-7.19918e-08 1.75852e-05 -1.20651e-06
-3.50009e-08 1.58834e-05 -1.09265e-06
1.92584e-06 -8.16393e-09 2.58361e-08
-1.35203e-08 1.22048e-05 -8.51115e-07
-9.41319e-10 1.06105e-05 -7.26671e-07
-9.22359e-09 9.16535e-06 -6.54242e-07
-3.2623e-09 9.1901e-06 -6.55089e-07
3.29166e-09 7.98288e-06 -5.72931e-07
6.27806e-09 6.91496e-06 -4.97243e-07
-4.96439e-09 5.90326e-06 -4.25668e-07
-3.94116e-09 4.91608e-06 -3.55394e-07
2.2817e-06 -5.69818e-09 1.39955e-08
-4.51818e-09 5.92081e-06 -4.25419e-07
2.31357e-06 -4.96899e-09 9.89152e-09
2.34557e-06 -3.87626e-09 4.81489e-09
2.38356e-06 -3.5685e-09 1.69564e-08
2.22534e-06 -5.22597e-09 1.51897e-08
2.32468e-06 -3.37087e-09 1.73053e-08
4.85786e-09 8.00503e-06 -5.75153e-07
7.75374e-09 6.9344e-06 -4.99688e-07
-3.12864e-09 4.93019e-06 -3.57005e-07
-1.92439e-09 9.2157e-06 -6.54548e-07
4.26845e-09 8.02836e-06 -5.75489e-07
2.25584e-06 -4.8081e-09 1.10527e-08
2.28697e-06 -3.69161e-09 5.16122e-09
-4.66154e-09 5.93757e-06 -4.2661e-07
-3.38374e-09 4.94487e-06 -3.5699e-07
2.16952e-06 -4.88686e-09 1.53051e-08
2.20099e-06 -4.59764e-09 1.06313e-08
2.23168e-06 -3.5116e-09 4.66898e-09
2.26787e-06 -3.33522e-09 1.58618e-08
7.49805e-09 6.95398e-06 -5.01632e-07
-3.21286e-09 9.239e-06 -6.5462e-07
3.30365e-09 8.04934e-06 -5.75987e-07
6.56156e-09 6.9729e-06 -5.01022e-07
-4.09986e-09 5.95338e-06 -4.26885e-07
-2.75136e-09 4.95814e-06 -3.57691e-07
-4.15433e-09 5.96873e-06 -4.25271e-07
2.11602e-06 -4.51957e-09 1.59563e-08
2.14736e-06 -4.35248e-09 1.13494e-08
2.17761e-06 -3.32227e-09 4.98123e-09
2.2127e-06 -3.22121e-09 1.50313e-08
2.41092e-06 -3.04362e-09 6.08385e-09
1.82434e-09 3.93419e-06 -2.859e-07
2.92661e-10 2.95151e-06 -2.15101e-07
2.98933e-11 1.96746e-06 -1.43259e-07
-7.10969e-11 9.8345e-07 -7.16331e-08
5.08109e-10 2.96041e-06 -2.15035e-07
2.43193e-06 -9.08867e-10 7.35237e-09
2.44945e-06 -5.72914e-10 1.31683e-08
2.45986e-06 1.85587e-10 2.51343e-09
2.46496e-06 9.41386e-10 -8.5863e-09
2.37174e-06 -9.58508e-10 7.88996e-09
2.38865e-06 -5.75006e-10 1.23837e-08
2.39879e-06 1.90061e-10 2.16179e-09
2.40373e-06 9.41356e-10 -9.29512e-09
2.56387e-09 3.94557e-06 -2.86831e-07
3.0474e-10 1.97315e-06 -1.43741e-07
7.83992e-11 9.86303e-07 -7.18769e-08
2.35058e-06 -2.96534e-09 5.27576e-09
2.50648e-09 3.95744e-06 -2.86172e-07
5.11972e-10 2.96891e-06 -2.15541e-07
2.65326e-10 1.97908e-06 -1.43482e-07
1.19177e-10 9.89274e-07 -7.17673e-08
2.29351e-06 -2.721e-09 5.05223e-09
2.31334e-06 -9.37433e-10 7.8047e-09
2.32991e-06 -5.72076e-10 1.13649e-08
2.33994e-06 1.04521e-10 1.28041e-09
2.3449e-06 7.91027e-10 -1.00655e-08
2.45377e-09 3.96821e-06 -2.86064e-07
5.20169e-10 2.97701e-06 -2.15462e-07
3.26794e-10 1.98449e-06 -1.43443e-07
1.90202e-10 9.91978e-07 -7.17723e-08
-1.00331e-17 1.56246e-12 -1.14323e-13
2.23691e-06 -2.37848e-09 5.07806e-09
3.9637e-10 2.98486e-06 -2.14696e-07
2.25661e-06 -8.90907e-10 8.09918e-09
2.27268e-06 -5.13294e-10 1.05177e-08
2.28256e-06 1.09393e-10 1.08778e-09
2.28746e-06 7.44907e-10 -1.02585e-08
-8.43926e-11 -9.83418e-07 7.18401e-08
4.38166e-11 -1.96738e-06 1.43666e-07
4.43688e-10 -2.95141e-06 2.15856e-07
2.07915e-09 -3.93406e-06 2.86989e-07
5.03899e-17 7.15001e-13 -5.21004e-14
6.21756e-10 -2.96036e-06 2.15687e-07
2.46481e-06 -1.02475e-09 8.55827e-09
2.45975e-06 -2.38969e-10 -2.91525e-09
2.44931e-06 4.98628e-10 -1.33944e-08
2.43187e-06 8.57757e-10 -7.9637e-09
2.40362e-06 -1.01271e-09 9.2726e-09
2.3987e-06 -2.32346e-10 -2.55274e-09
2.38853e-06 5.01528e-10 -1.25623e-08
2.3717e-06 9.08055e-10 -8.46803e-09
6.07036e-11 -9.86287e-07 7.20405e-08
3.10739e-10 -1.9731e-06 1.44055e-07
2.77175e-09 -3.94548e-06 2.87798e-07
2.41091e-06 3.00221e-09 -6.15245e-09
-3.55616e-18 5.90848e-14 -4.30096e-15
9.62746e-11 -9.89273e-07 7.18925e-08
2.61508e-10 -1.97907e-06 1.43712e-07
5.85046e-10 -2.96889e-06 2.16104e-07
2.66119e-09 -3.95741e-06 2.87012e-07
2.35057e-06 2.92429e-09 -5.34725e-09
2.34481e-06 -8.25964e-10 1.00159e-08
2.33988e-06 -1.10216e-10 -1.69309e-09
2.32981e-06 5.26549e-10 -1.15275e-08
2.31332e-06 9.15097e-10 -8.35948e-09
2.29352e-06 2.70487e-09 -5.13553e-09
7.5184e-17 -4.16779e-13 3.02207e-14
1.72868e-10 -9.91991e-07 7.18182e-08
3.30415e-10 -1.98449e-06 1.43549e-07
5.49017e-10 -2.97702e-06 2.15739e-07
2.55715e-09 -3.96823e-06 2.86511e-07
1.97718e-16 -7.10572e-13 5.11129e-14
4.18778e-10 -2.98482e-06 2.14716e-07
2.28738e-06 -7.77825e-10 1.01691e-08
2.28252e-06 -1.24154e-10 -1.5655e-09
2.27259e-06 4.69548e-10 -1.06443e-08
2.25659e-06 8.60004e-10 -8.66464e-09
2.23692e-06 2.36234e-09 -5.16073e-09
-3.94925e-09 -4.91604e-06 3.55409e-07
-4.97334e-09 -5.90323e-06 4.25691e-07
6.2573e-09 -6.91493e-06 4.97334e-07
3.27166e-09 -7.98275e-06 5.72963e-07
-4.52284e-09 -5.92078e-06 4.25419e-07
2.38355e-06 3.53272e-09 -1.69895e-08
2.34555e-06 3.84668e-09 -4.84792e-09
2.31355e-06 4.944e-09 -9.8906e-09
2.28169e-06 5.69831e-09 -1.40663e-08
2.32467e-06 3.33519e-09 -1.73348e-08
-3.134e-09 -4.93016e-06 3.57012e-07
7.74831e-09 -6.93437e-06 4.99689e-07
4.85454e-09 -8.0049e-06 5.75101e-07
2.22533e-06 5.22562e-09 -1.52379e-08
-9.23199e-09 -9.16522e-06 6.5414e-07
-3.26212e-09 -9.18996e-06 6.54955e-07
-3.38729e-09 -4.94484e-06 3.56988e-07
-4.66399e-09 -5.93753e-06 4.26598e-07
2.28695e-06 3.66094e-09 -5.16323e-09
2.25582e-06 4.78203e-09 -1.10288e-08
4.26841e-09 -8.02822e-06 5.75417e-07
-1.92347e-09 -9.21554e-06 6.54414e-07
2.26786e-06 3.3249e-09 -1.59051e-08
2.23167e-06 3.5066e-09 -4.68436e-09
2.20097e-06 4.59759e-09 -1.0622e-08
7.49518e-09 -6.95395e-06 5.01619e-07
2.16952e-06 4.89264e-09 -1.5358e-08
-2.75405e-09 -4.95813e-06 3.57703e-07
-4.10127e-09 -5.95338e-06 4.26888e-07
6.55981e-09 -6.9729e-06 5.01024e-07
3.30366e-09 -8.04931e-06 5.75951e-07
-3.21515e-09 -9.23897e-06 6.54544e-07
-4.15365e-09 -5.96873e-06 4.25266e-07
2.2127e-06 3.21074e-09 -1.50758e-08
2.17761e-06 3.31699e-09 -4.99746e-09
2.14734e-06 4.35201e-09 -1.13421e-08
2.11603e-06 4.52512e-09 -1.60068e-08
1.88155e-06 1.33402e-08 -7.43597e-08
-5.69749e-08 -1.39041e-05 9.57932e-07
2.12804e-06 8.937e-09 -1.7329e-08
-1.13958e-08 -1.0528e-05 7.24357e-07
-2.50648e-08 -1.21135e-05 8.35357e-07
-4.8283e-08 -1.5773e-05 1.05368e-06
-1.41572e-07 -1.86434e-05 1.27284e-06
1.83576e-06 1.27112e-08 -7.17454e-08
1.95213e-06 1.26768e-08 -5.89998e-08
-8.21089e-09 -1.05571e-05 7.24805e-07
-2.15874e-08 -1.21457e-05 8.40927e-07
-4.75844e-08 -1.39384e-05 9.65334e-07
2.2304e-06 6.6477e-09 -3.35506e-10
2.17953e-06 7.74571e-09 -6.13547e-09
2.07471e-06 9.65267e-09 -1.9162e-08
1.79161e-06 1.20664e-08 -6.94196e-08
-8.31387e-08 -1.75084e-05 1.17909e-06
2.01918e-06 1.1566e-08 -3.50572e-08
2.17642e-06 6.28644e-09 -2.44153e-09
2.12676e-06 7.38814e-09 -7.70461e-09
2.07616e-06 8.52239e-09 -1.96159e-08
2.02304e-06 9.00982e-09 -2.09525e-08
-3.84342e-08 -1.58101e-05 1.06642e-06
1.96973e-06 1.09375e-08 -3.52038e-08
-1.36564e-07 -1.86865e-05 1.29755e-06
1.90441e-06 1.21443e-08 -5.74687e-08
-1.51451e-07 -1.88159e-05 1.23013e-06
1.78416e-06 1.20622e-08 7.36955e-09
-4.11249e-09 -1.05847e-05 7.26569e-07
-1.80391e-08 -1.21764e-05 8.47662e-07
-4.18922e-08 -1.39727e-05 9.68812e-07
-3.79117e-08 -1.58484e-05 1.07349e-06
1.85736e-06 1.15612e-08 -5.6346e-08
-7.79041e-08 -1.75479e-05 1.18848e-06
-3.85245e-08 -1.40057e-05 9.65847e-07
2.12393e-06 6.11062e-09 -4.10939e-09
2.07512e-06 7.16513e-09 -9.16107e-09
2.02532e-06 8.16168e-09 -2.13764e-08
1.97274e-06 8.60443e-09 -2.29869e-08
1.92012e-06 1.04182e-08 -3.6303e-08
1.74942e-06 1.1482e-08 -6.58346e-08
-1.24714e-07 -1.87251e-05 1.29695e-06
-1.4869e-07 -1.88596e-05 1.25697e-06
1.74086e-06 1.14776e-08 5.79992e-09
-1.67991e-07 -1.78449e-05 1.16463e-06
1.92584e-06 8.16161e-09 -2.58335e-08
-9.45606e-10 -1.06105e-05 7.26629e-07
-1.35242e-08 -1.22048e-05 8.51085e-07
-3.49094e-08 -1.58834e-05 1.09252e-06
1.81281e-06 1.09288e-08 -5.51293e-08
-7.19324e-08 -1.75851e-05 1.20639e-06
1.70357e-06 1.12602e-08 6.01272e-08
2.15919e-06 -1.55673e-08 -2.7822e-07
2.09981e-06 -1.50779e-08 -2.69522e-07
2.0426e-06 -1.46634e-08 -2.62219e-07
1.962e-06 -1.39512e-08 -2.5206e-07
1.91705e-06 -1.36109e-08 -2.44562e-07
1.87964e-06 -1.31387e-08 -2.23823e-07
-1.77781e-07 1.39029e-05 -8.68141e-07
2.20548e-06 -1.60142e-08 -2.85601e-07
2.26821e-06 -1.65524e-08 -2.95725e-07
2.33197e-06 -1.73228e-08 -3.08447e-07
2.39498e-06 -1.7961e-08 -3.21852e-07
2.44661e-06 -1.85117e-08 -3.3262e-07
2.50004e-06 -1.87468e-08 -3.46077e-07
-1.41761e-07 1.35703e-05 -7.97706e-07
-1.26834e-07 1.36263e-05 -7.92574e-07
-1.14137e-07 1.36826e-05 -8.02e-07
-1.24279e-07 1.374e-05 -8.33057e-07
-1.46243e-07 1.37964e-05 -8.67038e-07
2.27447e-06 -1.47619e-08 -5.5375e-07
-1.69106e-07 1.3851e-05 -8.77794e-07
2.22195e-06 -1.44111e-08 -5.37783e-07
2.17602e-06 -1.39536e-08 -5.19333e-07
1.8423e-06 -1.26092e-08 -1.99085e-07
-1.81482e-07 1.39534e-05 -8.48724e-07
1.80766e-06 -1.21585e-08 -1.75548e-07
2.12093e-06 -1.35267e-08 -4.98416e-07
1.76677e-06 -1.16954e-08 -1.64326e-07
-1.87123e-07 1.40014e-05 -8.3938e-07
2.06485e-06 -1.30029e-08 -4.78325e-07
-1.94156e-07 1.40491e-05 -8.40948e-07
1.72733e-06 -1.13977e-08 -1.54927e-07
2.55843e-06 -1.87457e-08 -3.5928e-07
2.33123e-06 -1.50546e-08 -5.71187e-07
-1.5229e-07 1.35124e-05 -8.23159e-07
-1.5821e-07 1.42693e-05 -8.25115e-07
2.61402e-06 -1.87472e-08 -3.71879e-07
2.38331e-06 -1.52584e-08 -5.89623e-07
-1.528e-07 1.34526e-05 -8.51353e-07
-1.42843e-07 1.42071e-05 -8.54274e-07
2.67108e-06 -1.87345e-08 -3.84839e-07
2.43617e-06 -1.56261e-08 -6.07944e-07
-1.55723e-07 1.33922e-05 -8.70669e-07
-1.23248e-07 1.41428e-05 -8.70178e-07
2.81502e-06 -1.97391e-08 -4.09451e-07
2.56078e-06 -1.66466e-08 -6.44456e-07
-1.56676e-07 1.33275e-05 -8.72181e-07
-1.07696e-07 1.40736e-05 -8.5892e-07
2.6294e-06 -1.72298e-08 -6.62585e-07
-1.20949e-07 1.32601e-05 -8.50546e-07
2.69441e-06 -1.72761e-08 -6.87336e-07
-8.11616e-08 1.3188e-05 -8.20315e-07
2.76234e-06 -1.72072e-08 -7.08472e-07
-7.95232e-08 1.37899e-05 -8.3208e-07
-7.04943e-08 1.31142e-05 -8.07304e-07
2.83567e-06 -1.69991e-08 -7.32156e-07
-9.06458e-08 1.30406e-05 -8.20879e-07
2.90931e-06 -1.70534e-08 -7.58345e-07
-6.80386e-08 1.38638e-05 -8.02577e-07
-5.97046e-08 1.39361e-05 -7.93678e-07
-7.21252e-08 1.40045e-05 -8.31425e-07
2.89589e-06 -2.02622e-08 -4.14224e-07
2.96968e-06 -2.01741e-08 -4.31808e-07
3.04718e-06 -1.97627e-08 -4.42339e-07
3.1291e-06 -1.93067e-08 -4.58668e-07
3.21084e-06 -1.89116e-08 -4.7674e-07
-8.12786e-08 1.37148e-05 -8.44102e-07
2.98922e-06 -1.70397e-08 -7.87705e-07
-9.86388e-08 1.29662e-05 -8.26704e-07
3.30079e-06 -1.87546e-08 -4.95688e-07
2.68336e-06 -1.52801e-08 -1.03557e-06
2.60943e-06 -1.49443e-08 -1.00082e-06
2.54378e-06 -1.48629e-08 -9.66123e-07
-7.56707e-08 1.36384e-05 -8.49538e-07
-9.39263e-08 1.28899e-05 -8.36807e-07
3.07673e-06 -1.70268e-08 -8.16265e-07
2.76381e-06 -1.4604e-08 -1.06944e-06
3.39841e-06 -1.75172e-08 -5.14616e-07
-7.14978e-08 1.35611e-05 -8.58289e-07
-8.37707e-08 1.28116e-05 -8.53021e-07
2.85266e-06 -1.3114e-08 -1.10224e-06
-6.77962e-08 1.34785e-05 -8.80528e-07
2.93548e-06 -1.20111e-08 -1.1456e-06
-3.59719e-08 1.33968e-05 -8.50102e-07
3.02936e-06 -1.13703e-08 -1.19336e-06
-1.00831e-08 1.33108e-05 -8.06838e-07
3.12342e-06 -1.03458e-08 -1.24537e-06
3.22916e-06 -9.71145e-09 -1.30555e-06
-7.98848e-09 1.3222e-05 -7.8367e-07
3.17728e-06 -1.62289e-08 -8.43765e-07
3.50786e-06 -1.57588e-08 -5.3383e-07
3.39477e-06 -1.27707e-08 -9.08882e-07
3.50811e-06 -9.92495e-09 -9.54137e-07
3.63712e-06 -6.72825e-09 -1.00457e-06
3.28169e-06 -1.4851e-08 -8.70118e-07
-1.0162e-07 1.27336e-05 -9.00995e-07
-1.53246e-07 1.42508e-05 -1.11771e-06
3.63463e-06 -1.3823e-08 -5.37482e-07
-1.16406e-07 1.26588e-05 -9.26351e-07
-8.14024e-08 1.2578e-05 -8.8717e-07
-8.30429e-08 1.24946e-05 -8.83297e-07
-1.41932e-07 1.41689e-05 -1.1321e-06
3.78648e-06 -1.25564e-08 -5.34934e-07
3.93953e-06 -1.09949e-08 -5.43734e-07
4.10141e-06 -1.01971e-08 -5.72706e-07
-1.25632e-07 1.40837e-05 -1.13791e-06
-1.29275e-07 1.3991e-05 -1.15295e-06
-2.00438e-08 1.31145e-05 -8.453e-07
3.37566e-06 -8.98766e-09 -1.37876e-06
-4.26599e-08 1.29996e-05 -8.76671e-07
-1.49146e-07 1.89229e-05 -1.13604e-06
-1.39002e-07 1.8792e-05 -1.14315e-06
3.50308e-06 -6.66403e-09 -1.43236e-06
-3.54185e-08 1.28825e-05 -8.68546e-07
3.60806e-06 -2.07796e-09 -1.47943e-06
-1.93971e-07 1.90504e-05 -1.16646e-06
3.81416e-06 -5.63547e-09 -1.07264e-06
3.96588e-06 -3.02732e-09 -1.12556e-06
4.09431e-06 4.63026e-10 -1.16334e-06
-7.10485e-08 1.24067e-05 -8.57341e-07
-9.58487e-08 1.38915e-05 -1.12426e-06
4.32652e-06 -1.02647e-08 -6.11287e-07
-6.14364e-08 1.23012e-05 -8.45325e-07
-7.2135e-08 1.37805e-05 -1.10764e-06
-4.24137e-08 1.21799e-05 -8.4826e-07
4.50618e-06 -7.57634e-09 -6.59609e-07
4.65035e-06 -3.98294e-09 -6.99483e-07
-5.01147e-08 1.36713e-05 -1.07247e-06
-1.88555e-07 1.91655e-05 -1.12837e-06
-1.52413e-07 1.87717e-05 -1.22793e-06
-1.69265e-07 1.78009e-05 -1.17393e-06
1.82933e-06 -1.25901e-08 -8.02897e-09
1.74786e-06 -1.17636e-08 -6.46706e-08
-1.9765e-07 1.58171e-05 -1.10573e-06
-2.0431e-07 1.58626e-05 -1.07619e-06
-2.0621e-07 1.59062e-05 -1.06336e-06
-1.52679e-07 1.87253e-05 -1.22955e-06
-1.67363e-07 1.77546e-05 -1.17206e-06
1.87739e-06 -1.30032e-08 -9.62959e-10
1.79524e-06 -1.21989e-08 -5.65788e-08
-1.48625e-07 1.86753e-05 -1.22716e-06
-1.63238e-07 1.77066e-05 -1.15552e-06
1.84555e-06 -1.26167e-08 -4.9552e-08
1.92911e-06 -1.35329e-08 6.46882e-09
1.88917e-06 -1.29711e-08 -5.3873e-08
1.93318e-06 -1.34607e-08 -5.97839e-08
-1.41032e-07 1.86262e-05 -1.22383e-06
-1.55971e-07 1.76593e-05 -1.14903e-06
1.98112e-06 -1.40035e-08 9.00372e-09
-1.34308e-07 1.85746e-05 -1.24116e-06
-1.54114e-07 1.76116e-05 -1.17086e-06
2.03233e-06 -1.4492e-08 1.48208e-08
-2.01734e-07 1.5949e-05 -1.0496e-06
-1.42503e-07 1.85996e-05 -1.26504e-06
-8.50318e-08 1.74673e-05 -1.17584e-06
1.93138e-06 -1.37992e-08 8.20628e-08
2.00325e-06 -1.30449e-08 6.65299e-08
-1.35993e-07 1.85532e-05 -1.24406e-06
-7.44623e-08 1.74228e-05 -1.18478e-06
1.9821e-06 -1.43435e-08 8.64168e-08
2.05434e-06 -1.34617e-08 7.36705e-08
-1.26146e-07 1.8505e-05 -1.2342e-06
-6.90996e-08 1.73778e-05 -1.19392e-06
2.03642e-06 -1.49805e-08 9.41362e-08
2.08985e-06 -1.55842e-08 9.91449e-08
2.14097e-06 -1.62325e-08 1.06157e-07
2.10968e-06 -1.39482e-08 7.82422e-08
-1.14486e-07 1.84555e-05 -1.24277e-06
-6.23804e-08 1.73322e-05 -1.1955e-06
2.16384e-06 -1.45276e-08 8.40153e-08
-1.10697e-07 1.84065e-05 -1.24576e-06
-6.01565e-08 1.72855e-05 -1.18579e-06
2.21444e-06 -1.50428e-08 8.73857e-08
-1.86438e-07 1.5773e-05 -1.06272e-06
-1.34147e-07 1.75632e-05 -1.15909e-06
-1.11077e-07 1.85252e-05 -1.19809e-06
-1.65334e-07 1.55861e-05 -9.99113e-07
-1.70931e-07 1.56356e-05 -1.00592e-06
-1.81661e-07 1.56818e-05 -1.01165e-06
-1.86703e-07 1.57282e-05 -1.03989e-06
2.08443e-06 -1.48898e-08 1.66728e-08
1.97663e-06 -1.38003e-08 -7.14427e-08
-1.01245e-07 1.75148e-05 -1.1273e-06
-9.159e-08 1.84722e-05 -1.18375e-06
2.02147e-06 -1.43164e-08 -8.52543e-08
2.14102e-06 -1.54413e-08 2.37313e-08
2.11269e-06 -1.53381e-08 -1.02774e-07
2.06452e-06 -1.492e-08 -9.98958e-08
-6.72246e-08 1.74615e-05 -1.0923e-06
-7.83919e-08 1.84197e-05 -1.17001e-06
2.19011e-06 -1.58709e-08 2.63183e-08
-5.569e-08 1.74109e-05 -1.08827e-06
-7.51467e-08 1.83674e-05 -1.17803e-06
2.2406e-06 -1.63322e-08 2.66879e-08
-6.90791e-08 1.73583e-05 -1.08437e-06
-8.20979e-08 1.83151e-05 -1.19152e-06
-1.02356e-07 1.83582e-05 -1.24424e-06
-5.11076e-08 1.72379e-05 -1.17427e-06
2.19299e-06 -1.67885e-08 1.15055e-07
2.26743e-06 -1.5511e-08 9.20082e-08
-3.82456e-08 1.71907e-05 -1.15784e-06
-8.84127e-08 1.83091e-05 -1.22917e-06
2.30416e-06 -1.82604e-08 1.35683e-07
2.36058e-06 -1.88102e-08 1.47559e-07
2.24915e-06 -1.7529e-08 1.24139e-07
2.32427e-06 -1.61524e-08 9.84489e-08
-7.74401e-08 1.8257e-05 -1.21e-06
-2.73543e-08 1.71411e-05 -1.13839e-06
2.37707e-06 -1.67923e-08 1.04835e-07
-6.95659e-08 1.82036e-05 -1.19708e-06
-2.3078e-08 1.70904e-05 -1.13836e-06
2.43205e-06 -1.74184e-08 1.1238e-07
-7.41074e-08 1.81496e-05 -1.1959e-06
-2.92031e-08 1.70388e-05 -1.1412e-06
2.12996e-06 -1.0211e-08 1.78726e-08
2.18176e-06 -9.36309e-09 1.76447e-08
2.07278e-06 -1.20219e-08 3.81639e-08
-3.97586e-08 1.57321e-05 -1.05945e-06
-4.4178e-08 1.3865e-05 -9.6506e-07
2.12489e-06 -1.22549e-08 4.29135e-08
2.1805e-06 -1.26437e-08 4.8493e-08
2.23542e-06 -1.2903e-08 5.12669e-08
2.28467e-06 -1.30926e-08 5.46706e-08
2.18487e-06 -1.04963e-08 1.9459e-08
2.23712e-06 -9.60769e-09 2.00477e-08
-4.00489e-08 1.38259e-05 -9.71126e-07
-3.02799e-08 1.56886e-05 -1.07213e-06
2.29634e-06 -9.97983e-09 2.20381e-08
2.24299e-06 -1.09354e-08 2.09241e-08
-3.46414e-08 1.37869e-05 -9.73881e-07
-2.38071e-08 1.56463e-05 -1.07485e-06
2.30211e-06 -1.12911e-08 2.15531e-08
2.35463e-06 -1.03438e-08 2.49578e-08
-2.44102e-08 1.56034e-05 -1.08295e-06
-2.87249e-08 1.37462e-05 -9.83579e-07
2.35477e-06 -1.15754e-08 2.19576e-08
2.40587e-06 -1.05668e-08 2.73503e-08
2.23465e-06 -8.01484e-09 5.93946e-09
2.2862e-06 -6.8884e-09 -1.49385e-10
-2.32792e-08 1.20802e-05 -8.40787e-07
-8.41626e-09 1.04983e-05 -7.2665e-07
2.34268e-06 -6.91999e-09 8.72839e-10
2.29077e-06 -8.03079e-09 8.62832e-09
-1.49557e-08 1.20439e-05 -8.52664e-07
2.38121e-10 1.0466e-05 -7.34829e-07
2.35013e-06 -8.28337e-09 1.10446e-08
2.40275e-06 -7.08368e-09 3.71934e-09
-6.80781e-09 1.2007e-05 -8.60305e-07
7.85922e-09 1.0433e-05 -7.41293e-07
-6.23218e-09 1.19717e-05 -8.67234e-07
2.40963e-06 -8.33106e-09 1.38599e-08
2.46261e-06 -7.05303e-09 6.35594e-09
9.06092e-09 1.04014e-05 -7.48559e-07
2.46008e-06 -8.37959e-09 1.7262e-08
2.51199e-06 -6.87023e-09 9.28497e-09
-9.90008e-09 1.55596e-05 -1.08254e-06
-2.76595e-08 1.37089e-05 -9.86371e-07
2.33729e-06 -1.32966e-08 5.78433e-08
2.40962e-06 -1.17873e-08 2.48717e-08
2.46184e-06 -1.08281e-08 3.03355e-08
2.39424e-06 -1.38759e-08 6.2545e-08
2.44917e-06 -1.43769e-08 6.71021e-08
2.50465e-06 -1.48317e-08 6.97284e-08
3.24438e-10 1.55158e-05 -1.07558e-06
-1.79315e-08 1.36676e-05 -9.91261e-07
2.46758e-06 -1.19855e-08 2.64271e-08
2.52207e-06 -1.11869e-08 3.33926e-08
1.01568e-08 1.54686e-05 -1.06693e-06
-1.2612e-08 1.36249e-05 -9.93601e-07
2.52223e-06 -1.21576e-08 3.10152e-08
2.5801e-06 -1.15649e-08 3.66804e-08
1.64957e-08 1.54214e-05 -1.06752e-06
1.47496e-08 1.53738e-05 -1.06975e-06
-8.01833e-09 1.35828e-05 -9.99655e-07
2.57738e-06 -1.22844e-08 3.3438e-08
2.63765e-06 -1.18814e-08 3.98555e-08
-8.99479e-09 1.35387e-05 -1.00309e-06
-5.7307e-10 1.19364e-05 -8.68728e-07
1.39689e-08 1.03694e-05 -7.55236e-07
2.51691e-06 -8.39642e-09 2.14324e-08