# vtk DataFile Version 3.0
vtk output
ASCII
DATASET POLYDATA
POINTS 40097 float
0.365032 1.77755 -0.10861
0.343965 1.7777 -0.108273
0.365103 1.76757 -0.107951
0.354548 1.77263 -0.108109
0.33337 1.77279 -0.107865
0.322772 1.77788 -0.107888
0.35461 1.76265 -0.107481
0.344035 1.76772 -0.107623
0.301657 1.7781 -0.107206
0.312402 1.77301 -0.10711
0.365149 1.75759 -0.107299
0.333451 1.76281 -0.107244
0.322864 1.7679 -0.107258
0.290965 1.77322 -0.106799
0.354662 1.75266 -0.106841
0.344097 1.75773 -0.106991
0.406707 1.77732 -0.109362
0.427468 1.77725 -0.10945
0.458556 1.77217 -0.109423
0.448218 1.77719 -0.10959
0.468891 1.77715 -0.109559
0.489538 1.77713 -0.109464
0.417096 1.77229 -0.109217
0.43784 1.77224 -0.109022
0.386003 1.77743 -0.108942
0.47921 1.77215 -0.109142
0.406741 1.76735 -0.108707
0.427488 1.76727 -0.108786
0.396436 1.77239 -0.108851
0.458555 1.76219 -0.10876
0.448222 1.76721 -0.108932
0.468882 1.76717 -0.108901
0.489516 1.76716 -0.108812
0.375506 1.7725 -0.108306
0.396472 1.76241 -0.108208
0.417121 1.76231 -0.10856
0.386053 1.76745 -0.108305
0.437856 1.76226 -0.10836
0.448238 1.75723 -0.108275
0.468887 1.75719 -0.108243
0.479195 1.76218 -0.108479
0.417151 1.75233 -0.107913
0.40678 1.75737 -0.10805
0.427511 1.75729 -0.108125
0.458556 1.75221 -0.108105
0.489498 1.75718 -0.108154
0.375564 1.76252 -0.107747
0.396511 1.75243 -0.107577
0.386108 1.75747 -0.107676
0.448252 1.74725 -0.10762
0.468891 1.74722 -0.107586
0.489503 1.7472 -0.107496
0.437878 1.75228 -0.107711
0.479191 1.7522 -0.107824
0.417186 1.74235 -0.107255
0.406816 1.74739 -0.107408
0.427538 1.74731 -0.107465
0.375619 1.75254 -0.107122
0.458568 1.74223 -0.107444
0.479203 1.74222 -0.107164
0.499779 1.7422 -0.107288
0.406853 1.73741 -0.106765
0.427569 1.73734 -0.106803
0.396554 1.74245 -0.106949
0.386166 1.74749 -0.10705
0.458581 1.73225 -0.106788
0.448269 1.73727 -0.106959
0.468893 1.73724 -0.106925
0.489493 1.73722 -0.106839
0.437907 1.7423 -0.107048
0.245481 1.83372 -0.108768
0.234064 1.83888 -0.108914
0.245661 1.82373 -0.108104
0.234282 1.82889 -0.108243
0.222746 1.83406 -0.108215
0.210762 1.83924 -0.108141
0.245834 1.81375 -0.107456
0.234469 1.8189 -0.107604
0.222975 1.82407 -0.107573
0.211012 1.82925 -0.107522
0.185884 1.83964 -0.106958
0.198545 1.83445 -0.107215
0.246017 1.80376 -0.106814
0.234665 1.80891 -0.106974
0.223193 1.81408 -0.106947
0.211238 1.81926 -0.106962
0.198772 1.82445 -0.106684
0.172816 1.85484 -0.10751
0.17245 1.86484 -0.108127
0.172064 1.87483 -0.108762
0.184596 1.87961 -0.109507
0.184263 1.8896 -0.110161
0.171699 1.88482 -0.109389
0.171362 1.89482 -0.109987
0.183925 1.89959 -0.110827
0.15856 1.90003 -0.10908
0.158969 1.89004 -0.108497
0.159474 1.88005 -0.107813
0.159836 1.87005 -0.107268
0.173217 1.84485 -0.106831
0.160211 1.86006 -0.106701
0.146469 1.89526 -0.106671
0.18556 1.84963 -0.107605
0.245312 1.84371 -0.109429
0.233853 1.84887 -0.109595
0.222503 1.84405 -0.108876
0.210507 1.84923 -0.108776
0.19827 1.84444 -0.107805
0.185223 1.85963 -0.108261
0.184911 1.86962 -0.108883
0.245152 1.85369 -0.110082
0.222283 1.85404 -0.109527
0.198007 1.85443 -0.108372
0.233667 1.85885 -0.110255
0.210266 1.85922 -0.109376
0.24499 1.86368 -0.1107
0.222082 1.86402 -0.110129
0.197759 1.86442 -0.108894
0.233475 1.86884 -0.110898
0.210045 1.86921 -0.109938
0.233295 1.87882 -0.111515
0.244819 1.87366 -0.111354
0.221856 1.87401 -0.110775
0.197476 1.87441 -0.1095
0.24465 1.88365 -0.111997
0.221648 1.884 -0.111398
0.209817 1.8792 -0.11054
0.233133 1.88881 -0.112107
0.209592 1.88918 -0.111139
0.197226 1.8844 -0.110054
0.244493 1.89363 -0.112627
0.221436 1.89399 -0.112024
0.196951 1.89439 -0.11067
0.232932 1.8988 -0.11274
0.209365 1.89917 -0.111713
0.24432 1.90362 -0.113262
0.221228 1.90397 -0.112661
0.116931 2.02565 -0.106522
0.170933 1.90481 -0.110709
0.146065 1.90526 -0.107216
0.183542 1.90959 -0.11156
0.158078 1.91003 -0.109766
0.17052 1.9148 -0.111395
0.183258 1.91957 -0.112176
0.145426 1.91525 -0.107941
0.170198 1.92479 -0.111978
0.157615 1.92001 -0.110432
0.182998 1.92957 -0.112725
0.157247 1.93001 -0.11098
0.144991 1.92524 -0.108455
0.169912 1.93478 -0.112518
0.1445 1.93523 -0.109031
0.182722 1.93955 -0.11331
0.156853 1.94 -0.111561
0.169586 1.94477 -0.113105
0.144077 1.94523 -0.10949
0.182438 1.94954 -0.11388
0.156515 1.94999 -0.112072
0.169258 1.95476 -0.113671
0.143643 1.95522 -0.110037
0.182133 1.95953 -0.114464
0.15617 1.95998 -0.112608
0.168923 1.96475 -0.114221
0.143185 1.96522 -0.110534
0.131322 1.96046 -0.107165
0.131741 1.95046 -0.106704
0.196672 1.90438 -0.111295
0.232738 1.90878 -0.113386
0.209125 1.90916 -0.112334
0.244148 1.9136 -0.113892
0.221035 1.91396 -0.113245
0.196369 1.91436 -0.11197
0.232551 1.91877 -0.113996
0.208878 1.91915 -0.112942
0.24399 1.92359 -0.114478
0.220842 1.92395 -0.113831
0.196104 1.92435 -0.112598
0.232361 1.92875 -0.114585
0.208654 1.92914 -0.113508
0.195846 1.93434 -0.113166
0.243807 1.93357 -0.115062
0.220636 1.93393 -0.114397
0.232165 1.93874 -0.115163
0.208444 1.93913 -0.114031
0.195627 1.94433 -0.113717
0.243651 1.94356 -0.115649
0.220429 1.94392 -0.114983
0.231991 1.94872 -0.115745
0.208209 1.94911 -0.114614
0.195395 1.95431 -0.11426
0.243495 1.95354 -0.116233
0.220272 1.95391 -0.115505
0.231822 1.95871 -0.116323
0.207978 1.9591 -0.115163
0.195135 1.9643 -0.114839
0.243308 1.96353 -0.116852
0.220065 1.96389 -0.116058
0.181842 1.96952 -0.115019
0.155792 1.96997 -0.113151
0.130758 1.97045 -0.10776
0.168633 1.97474 -0.114727
0.14261 1.97521 -0.111163
0.181553 1.97951 -0.115561
0.155421 1.97996 -0.113651
0.130091 1.98045 -0.108406
0.168298 1.98473 -0.115267
0.142148 1.9852 -0.11174
0.181257 1.9895 -0.116104
0.155058 1.98995 -0.114181
0.129519 1.99044 -0.108969
0.168016 1.99471 -0.115781
0.141783 1.99519 -0.112211
0.181014 1.99949 -0.116634
0.154716 1.99994 -0.114728
0.128948 2.00043 -0.109503
0.167723 2.0047 -0.116335
0.141358 2.00518 -0.112802
0.128574 2.01042 -0.109969
0.180714 2.00947 -0.117226
0.15445 2.00993 -0.115191
0.167456 2.01469 -0.116838
0.141001 2.01517 -0.113335
0.128282 2.02041 -0.110383
0.180458 2.01946 -0.117766
0.154159 2.01992 -0.115707
0.167179 2.02468 -0.117351
0.140623 2.02515 -0.113877
0.180207 2.02944 -0.118253
0.153866 2.02991 -0.116192
0.231631 1.96869 -0.11691
0.207771 1.96909 -0.115629
0.19488 1.97429 -0.115401
0.243111 1.97351 -0.117478
0.219852 1.97388 -0.116638
0.231429 1.97868 -0.11751
0.207524 1.97908 -0.116204
0.194611 1.98428 -0.115965
0.242933 1.98349 -0.118089
0.219635 1.98387 -0.117217
0.231227 1.98866 -0.118106
0.207281 1.98906 -0.116759
0.194378 1.99427 -0.116494
0.242784 1.99348 -0.118675
0.219433 1.99385 -0.117771
0.23109 1.99865 -0.118655
0.207072 1.99905 -0.11734
0.19413 2.00426 -0.117037
0.242607 2.00346 -0.119279
0.219229 2.00384 -0.118353
0.230919 2.00863 -0.119239
0.206836 2.00903 -0.117952
0.193918 2.01424 -0.117584
0.242453 2.01344 -0.119853
0.219066 2.01382 -0.118875
0.230781 2.01862 -0.119786
0.206624 2.01902 -0.118531
0.193644 2.02423 -0.11815
0.242285 2.02343 -0.120434
0.218863 2.02381 -0.119439
0.206395 2.029 -0.119079
0.230605 2.0286 -0.120331
0.290815 1.7832 -0.107471
0.30153 1.78808 -0.107848
0.279909 1.78832 -0.107397
0.290682 1.79318 -0.108106
0.301402 1.79807 -0.108456
0.290548 1.80317 -0.108716
0.30128 1.80805 -0.109101
0.290394 1.81315 -0.109366
0.301159 1.81803 -0.109782
0.301029 1.82802 -0.110438
0.290262 1.82313 -0.110031
0.290117 1.83312 -0.110681
0.300902 1.838 -0.111092
0.279171 1.83824 -0.11047
0.279312 1.82825 -0.109851
0.268136 1.8334 -0.109457
0.279459 1.81827 -0.109266
0.256611 1.83855 -0.109159
0.268294 1.82342 -0.108815
0.279616 1.80828 -0.108639
0.25679 1.82857 -0.108532
0.268465 1.81343 -0.108198
0.279772 1.7983 -0.108021
0.256967 1.81859 -0.107947
0.268651 1.80345 -0.107595
0.257158 1.8086 -0.107323
0.280045 1.77833 -0.106806
0.268817 1.79346 -0.106981
0.257306 1.79861 -0.10673
0.333265 1.78277 -0.108521
0.354466 1.78261 -0.108771
0.312305 1.78299 -0.107765
0.364937 1.78753 -0.109281
0.343856 1.78768 -0.108917
0.322663 1.78787 -0.108526
0.354365 1.79259 -0.109429
0.333169 1.79276 -0.109161
0.31219 1.79297 -0.108419
0.312049 1.80295 -0.109026
0.311941 1.81293 -0.109696
0.311835 1.82292 -0.110376
0.31173 1.8329 -0.111031
0.36488 1.79751 -0.109943
0.343767 1.79766 -0.109561
0.322573 1.79785 -0.109139
0.354302 1.80257 -0.110091
0.333072 1.80274 -0.109805
0.364839 1.80749 -0.110621
0.343706 1.80764 -0.11024
0.322478 1.80783 -0.109783
0.354272 1.81255 -0.110766
0.333016 1.81272 -0.110485
0.364825 1.81747 -0.111297
0.343668 1.81762 -0.110922
0.322408 1.81782 -0.110479
0.364784 1.82744 -0.111962
0.343602 1.8276 -0.11156
0.332952 1.8227 -0.111141
0.354225 1.82253 -0.111424
0.322317 1.8278 -0.11113
0.332873 1.83268 -0.111802
0.35417 1.83251 -0.112086
0.364685 1.83742 -0.112635
0.343513 1.83758 -0.112215
0.322225 1.83778 -0.111786
0.289977 1.8431 -0.111322
0.267966 1.84339 -0.110075
0.30077 1.84798 -0.111744
0.279052 1.84822 -0.11109
0.25642 1.84854 -0.109777
0.289841 1.85308 -0.111945
0.267839 1.85337 -0.110678
0.30061 1.85796 -0.112375
0.278916 1.8582 -0.111729
0.256256 1.85853 -0.110365
0.289721 1.86306 -0.112563
0.300517 1.86794 -0.113049
0.267679 1.86336 -0.111286
0.289603 1.87304 -0.113229
0.278781 1.86819 -0.112346
0.267519 1.87334 -0.111876
0.256103 1.86851 -0.110942
0.300389 1.87792 -0.113682
0.278656 1.87817 -0.112977
0.255899 1.8785 -0.11159
0.289495 1.88303 -0.113846
0.267363 1.88332 -0.112507
0.300296 1.88791 -0.114275
0.278523 1.88815 -0.113578
0.255719 1.88848 -0.112199
0.289359 1.89301 -0.114419
0.2672 1.89331 -0.113103
0.255574 1.89846 -0.112826
0.300164 1.89789 -0.114869
0.278358 1.89814 -0.114157
0.31093 1.90277 -0.115408
0.289237 1.90299 -0.115019
0.267048 1.90329 -0.113703
0.31161 1.84288 -0.111683
0.354063 1.84249 -0.112754
0.332768 1.84266 -0.112453
0.31128 1.87282 -0.113605
0.311172 1.8828 -0.114226
0.311047 1.89279 -0.114823
0.364617 1.8474 -0.113297
0.343419 1.84756 -0.112855
0.322116 1.84776 -0.112414
0.311488 1.85286 -0.112322
0.311374 1.86284 -0.112955
0.353999 1.85247 -0.113395
[...]
POINT_DATA 40097
VECTORS alpha float
1.74122e-07 -6.74539e-10 4.52994e-09
1.72448e-07 -8.18628e-10 5.22789e-09
1.71518e-07 -6.58353e-10 4.51179e-09
-4.29309e-08 7.73314e-06 -5.00916e-07
-5.17855e-08 8.91827e-06 -5.76188e-07
1.71387e-07 -1.01131e-09 5.06485e-09
-4.31395e-08 7.73428e-06 -5.00671e-07
1.69884e-07 -7.97904e-10 5.2201e-09
1.7031e-07 -1.2088e-09 4.88146e-09
-6.44657e-08 1.02216e-05 -6.57116e-07
1.71688e-07 -6.50859e-10 4.5757e-09
-4.85985e-08 8.91958e-06 -5.75649e-07
1.68879e-07 -9.83714e-10 5.15111e-09
-8.59216e-08 1.17109e-05 -7.4278e-07
-4.19897e-08 7.73551e-06 -4.98812e-07
1.70054e-07 -7.84097e-10 5.41914e-09
1.73799e-07 -4.27581e-10 2.87693e-09
1.75052e-07 -3.72764e-10 2.46296e-09
-4.16458e-09 2.20792e-06 -1.46675e-07
1.7557e-07 -2.29751e-10 2.51726e-09
1.76033e-07 -1.13227e-10 2.38025e-09
1.75951e-07 -1.70738e-10 -7.48102e-10
-1.47179e-08 4.41162e-06 -2.91883e-07
-8.0542e-09 3.31106e-06 -2.20296e-07
1.73831e-07 -5.62579e-10 3.13609e-09
6.39151e-11 1.10389e-06 -7.35669e-08
1.71108e-07 -4.15168e-10 2.92634e-09
1.72321e-07 -3.63751e-10 2.45709e-09
-1.17573e-08 5.50927e-06 -3.62333e-07
-3.60632e-09 2.20825e-06 -1.46815e-07
1.72815e-07 -2.21201e-10 2.50859e-09
1.73256e-07 -1.08755e-10 2.3223e-09
1.73175e-07 -1.68272e-10 -8.20407e-10
-1.76925e-08 6.60991e-06 -4.29136e-07
-1.18851e-08 5.51012e-06 -3.63523e-07
-1.37695e-08 4.41227e-06 -2.92392e-07
1.71148e-07 -5.46559e-10 3.23206e-09
-6.91633e-09 3.31153e-06 -2.21104e-07
1.72925e-07 -2.15397e-10 2.56811e-09
1.73355e-07 -1.05436e-10 2.34117e-09
3.81835e-10 1.10405e-06 -7.36939e-08
-1.38748e-08 4.4129e-06 -2.92987e-07
1.71202e-07 -4.06655e-10 3.06477e-09
1.72396e-07 -3.58665e-10 2.51691e-09
-3.22925e-09 2.20855e-06 -1.4732e-07
1.73237e-07 -1.66951e-10 -8.48783e-10
-1.68588e-08 6.61088e-06 -4.28486e-07
-1.28631e-08 5.51091e-06 -3.63603e-07
1.71249e-07 -5.36079e-10 3.4207e-09
1.68832e-07 -2.0543e-10 2.56452e-09
1.69225e-07 -9.97389e-11 2.30222e-09
1.69135e-07 -1.61913e-10 -8.30159e-10
-6.71401e-09 3.312e-06 -2.21709e-07
5.46256e-10 1.1042e-06 -7.40264e-08
-1.32121e-08 4.41351e-06 -2.93742e-07
1.6723e-07 -3.90314e-10 3.10178e-09
1.68344e-07 -3.46762e-10 2.49107e-09
-1.66906e-08 6.61201e-06 -4.25867e-07
-2.99349e-09 2.20883e-06 -1.48063e-07
7.1096e-10 1.10435e-06 -7.4273e-08
2.02107e-15 -6.60257e-12 4.44951e-13
1.72304e-07 -3.93686e-10 3.29875e-09
1.7334e-07 -3.5504e-10 2.55911e-09
-1.20751e-08 5.51175e-06 -3.62786e-07
1.67275e-07 -5.1455e-10 3.48534e-09
-2.87369e-09 2.20912e-06 -1.48248e-07
1.73764e-07 -2.07978e-10 2.68177e-09
1.74123e-07 -1.02142e-10 2.36115e-09
1.7402e-07 -1.6872e-10 -9.0985e-10
-5.45282e-09 3.31246e-06 -2.22308e-07
-1.68516e-07 1.53551e-05 -9.08775e-07
1.88821e-07 -2.06044e-09 6.27884e-09
-1.65535e-07 1.53578e-05 -9.04689e-07
1.88644e-07 -2.05002e-09 6.49603e-09
-2.74996e-07 1.73742e-05 -1.00069e-06
1.91273e-07 -2.22762e-09 6.94846e-09
-1.65198e-07 1.53601e-05 -9.07306e-07
1.84e-07 -1.97933e-09 6.73131e-09
-2.71489e-07 1.73772e-05 -9.92747e-07
1.91228e-07 -2.21708e-09 7.23106e-09
1.95914e-07 -2.40967e-09 7.06033e-09
-3.97628e-07 1.91981e-05 -1.06869e-06
-1.57349e-07 1.5363e-05 -8.96208e-07
1.81225e-07 -1.93438e-09 6.85797e-09
-2.71031e-07 1.73795e-05 -9.95093e-07
1.86526e-07 -2.14076e-09 7.63877e-09
-3.97938e-07 1.92013e-05 -1.07215e-06
-5.20679e-07 2.04174e-05 -1.068e-06
-5.16423e-07 2.04139e-05 -1.06714e-06
-5.02945e-07 2.04105e-05 -1.05107e-06
2.15468e-07 -2.68967e-09 6.57789e-09
2.1471e-07 -2.68615e-09 6.46488e-09
-5.16543e-07 2.04072e-05 -1.06849e-06
-5.08899e-07 2.04039e-05 -1.06529e-06
2.22731e-07 -2.79133e-09 6.5864e-09
2.22817e-07 -2.85891e-09 2.75492e-10
2.1462e-07 -2.74967e-09 5.57719e-10
2.15052e-07 -2.75536e-09 5.42898e-10
2.05085e-07 -2.61596e-09 8.47519e-10
-5.23829e-07 2.04203e-05 -1.08026e-06
2.05846e-07 -2.60953e-09 1.09635e-09
-6.76162e-07 2.06117e-05 -1.0994e-06
2.00527e-07 -2.47384e-09 6.99922e-09
-1.57899e-07 1.53528e-05 -9.00866e-07
1.92672e-07 -2.11645e-09 6.11772e-09
-2.58658e-07 1.73711e-05 -9.89911e-07
1.95534e-07 -2.28731e-09 6.88753e-09
-3.80591e-07 1.9195e-05 -1.0615e-06
2.06281e-07 -2.55303e-09 6.87142e-09
2.05654e-07 -2.5578e-09 6.61388e-09
-1.59344e-07 1.53501e-05 -8.91113e-07
-2.61833e-07 1.73685e-05 -9.93455e-07
-3.75945e-07 1.9192e-05 -1.05773e-06
1.98088e-07 -2.18504e-09 6.06716e-09
2.01218e-07 -2.36504e-09 6.69048e-09
-1.61221e-07 1.53474e-05 -8.91565e-07
-2.62581e-07 1.73655e-05 -9.97503e-07
-3.6868e-07 1.91884e-05 -1.052e-06
1.97339e-07 -2.188e-09 5.97188e-09
2.00482e-07 -2.37107e-09 6.46964e-09
2.06093e-07 -2.29999e-09 6.12987e-09
-1.58121e-07 1.53449e-05 -8.85555e-07
-2.5148e-07 1.73628e-05 -9.89825e-07
-3.5082e-07 1.91856e-05 -1.04314e-06
-1.76309e-07 1.53424e-05 -8.96901e-07
-2.67668e-07 1.73599e-05 -9.99942e-07
2.09591e-07 -2.49355e-09 6.50114e-09
2.05261e-07 -2.30468e-09 6.01922e-09
2.08653e-07 -2.49631e-09 6.27818e-09
-3.64571e-07 1.91827e-05 -1.04949e-06
-1.63505e-07 1.53405e-05 -8.84749e-07
-2.59937e-07 1.7357e-05 -1.00462e-06
-3.54148e-07 1.91793e-05 -1.0545e-06
2.12247e-07 -2.39622e-09 6.16403e-09
2.15957e-07 -2.59764e-09 6.34245e-09
-1.80695e-07 1.53376e-05 -8.94905e-07
-2.73496e-07 1.73543e-05 -1.00549e-06
-7.66811e-07 1.95473e-05 -8.86407e-07
-5.14787e-07 2.04006e-05 -1.07759e-06
-6.43316e-07 2.06075e-05 -1.07335e-06
2.2688e-07 -2.84192e-09 6.71476e-09
2.26865e-07 -2.91193e-09 1.87002e-10
-4.87716e-07 2.03966e-05 -1.0623e-06
2.29066e-07 -2.88065e-09 6.665e-09
-6.15812e-07 2.06044e-05 -1.05064e-06
-5.00641e-07 2.03933e-05 -1.06322e-06
2.29323e-07 -2.94572e-09 -6.76935e-11
2.29532e-07 -2.89466e-09 6.54825e-09
2.29891e-07 -2.95665e-09 -5.40875e-10
-6.18374e-07 2.0601e-05 -1.06358e-06
-5.14309e-07 2.03901e-05 -1.06488e-06
-6.14596e-07 2.05972e-05 -1.05612e-06
2.33248e-07 -2.955e-09 6.6234e-09
2.33785e-07 -3.01547e-09 -8.11693e-10
-5.26193e-07 2.03867e-05 -1.07754e-06
-6.48043e-07 2.05936e-05 -1.07103e-06
2.32451e-07 -2.9477e-09 6.64959e-09
2.32897e-07 -3.00928e-09 -1.03965e-09
-5.10399e-07 2.0383e-05 -1.08777e-06
-6.41567e-07 2.05899e-05 -1.07267e-06
2.36765e-07 -3.01018e-09 6.50073e-09
2.37701e-07 -3.07617e-09 -1.38883e-09
-5.13357e-07 2.03794e-05 -1.09145e-06
-6.40855e-07 2.0586e-05 -1.05641e-06
2.28986e-07 -3.06503e-09 -2.0228e-08
2.24238e-07 -2.99976e-09 -1.95327e-08
-3.54052e-07 1.91761e-05 -1.05269e-06
2.15329e-07 -2.43247e-09 6.33384e-09
2.19274e-07 -2.65009e-09 6.376e-09
-1.72467e-07 1.5335e-05 -9.00011e-07
-2.60902e-07 1.73509e-05 -1.01775e-06
-3.50627e-07 1.91724e-05 -1.0582e-06
2.17268e-07 -2.46528e-09 6.31983e-09
2.21283e-07 -2.68589e-09 6.23564e-09
-1.72513e-07 1.53322e-05 -8.99751e-07
-2.56032e-07 1.73481e-05 -1.01364e-06
-3.54703e-07 1.91697e-05 -1.05362e-06
2.17917e-07 -2.48503e-09 6.20684e-09
2.21859e-07 -2.70737e-09 6.02449e-09
-3.67464e-07 1.91665e-05 -1.05498e-06
-1.6732e-07 1.53294e-05 -8.87619e-07
-2.54623e-07 1.7345e-05 -1.00886e-06
2.21157e-07 -2.54053e-09 6.1109e-09
2.25296e-07 -2.77195e-09 5.81495e-09
-3.50528e-07 1.91635e-05 -1.04068e-06
-1.51045e-07 1.53262e-05 -8.86023e-07
-2.28717e-07 1.73418e-05 -9.94468e-07
2.20602e-07 -2.53683e-09 6.03837e-09
2.24568e-07 -2.76555e-09 5.69407e-09
-3.50309e-07 1.916e-05 -1.05726e-06
-1.5518e-07 1.53229e-05 -8.9207e-07
-2.38406e-07 1.73388e-05 -1.00566e-06
2.24247e-07 -2.59416e-09 5.92665e-09
2.28617e-07 -2.82789e-09 5.4968e-09
-3.72787e-07 1.91568e-05 -1.06905e-06
-1.62573e-07 1.532e-05 -8.89072e-07
-2.45716e-07 1.73357e-05 -1.00835e-06
2.40412e-07 -3.06694e-09 6.43727e-09
2.41831e-07 -3.1408e-09 -1.67451e-09
2.33522e-07 -3.12531e-09 -2.05969e-08
-4.85011e-07 2.03759e-05 -1.07561e-06
-5.85304e-07 2.05819e-05 -9.99774e-07
2.55935e-07 -3.26479e-09 6.8388e-09
2.57759e-07 -3.34602e-09 -1.90033e-09
2.49082e-07 -3.32032e-09 -2.16944e-08
-4.81237e-07 2.03715e-05 -1.08368e-06
-5.97435e-07 2.05778e-05 -1.011e-06
2.61927e-07 -3.35112e-09 6.84873e-09
2.63161e-07 -3.42722e-09 -2.1754e-09
2.5379e-07 -3.37775e-09 -2.20882e-08
-4.81393e-07 2.03677e-05 -1.07548e-06
-5.68521e-07 2.05734e-05 -9.75193e-07
2.62766e-07 -3.37646e-09 6.65234e-09
2.64374e-07 -3.44736e-09 -2.37008e-09
2.5588e-07 -3.39797e-09 -2.23392e-08
-4.5317e-07 2.03627e-05 -1.05715e-06
-5.34476e-07 2.05689e-05 -9.47561e-07
2.65766e-07 -3.54362e-09 -2.3831e-08
2.73346e-07 -3.51174e-09 6.90999e-09
2.74797e-07 -3.58831e-09 -2.8742e-09
-4.78339e-07 2.03588e-05 -1.06907e-06
-5.078e-07 2.05642e-05 -9.2804e-07
2.68932e-07 -3.60532e-09 -2.51004e-08
2.75314e-07 -3.55063e-09 6.6464e-09
2.77613e-07 -3.63418e-09 -3.14715e-09
-4.88558e-07 2.03547e-05 -1.07015e-06
-5.40492e-07 2.05597e-05 -9.47776e-07
2.75462e-07 -3.56694e-09 6.21625e-09
2.77896e-07 -3.64882e-09 -3.39931e-09
2.27244e-07 -2.6452e-09 5.72308e-09
2.32006e-07 -2.89407e-09 5.05166e-09
-3.65295e-07 1.91531e-05 -1.06328e-06
-1.56664e-07 1.53173e-05 -8.85697e-07
-2.3302e-07 1.73327e-05 -9.99836e-07
2.41375e-07 -2.81689e-09 5.93507e-09
2.46937e-07 -3.08532e-09 5.14201e-09
-3.61332e-07 1.91495e-05 -1.05803e-06
-1.60913e-07 1.53141e-05 -8.88265e-07
-2.33709e-07 1.73294e-05 -9.97145e-07
2.4748e-07 -2.89921e-09 5.97158e-09
2.53052e-07 -3.17406e-09 4.99873e-09
-3.63233e-07 1.9146e-05 -1.04316e-06
-1.62918e-07 1.53108e-05 -8.89967e-07
-2.3213e-07 1.73261e-05 -9.8378e-07
2.48082e-07 -2.92719e-09 5.707e-09
2.53802e-07 -3.19817e-09 4.96942e-09
-3.32758e-07 1.91418e-05 -1.01872e-06
-1.5319e-07 1.53082e-05 -8.70145e-07
-2.12692e-07 1.73222e-05 -9.66574e-07
2.57886e-07 -3.05446e-09 5.66862e-09
2.63849e-07 -3.33708e-09 5.09127e-09
-3.47977e-07 1.91376e-05 -1.0275e-06
-1.63918e-07 1.53048e-05 -8.74808e-07
-2.16843e-07 1.73185e-05 -9.57802e-07
2.59134e-07 -3.08522e-09 5.22246e-09
2.65317e-07 -3.36784e-09 4.90248e-09
-3.49197e-07 1.91336e-05 -1.02281e-06
-1.70735e-07 1.53015e-05 -8.74233e-07
-2.19906e-07 1.7315e-05 -9.48357e-07
2.65635e-07 -3.38795e-09 4.68242e-09
2.5953e-07 -3.10948e-09 5.0338e-09
-8.43887e-08 1.17093e-05 -7.44548e-07
1.77451e-07 -1.27301e-09 4.89725e-09
1.77742e-07 -1.44316e-09 5.45611e-09
-9.22852e-08 1.17072e-05 -7.61031e-07
1.80121e-07 -1.30967e-09 4.67487e-09
-7.69016e-08 1.17058e-05 -7.4098e-07
1.8032e-07 -1.31268e-09 4.72849e-09
-7.94766e-08 1.17039e-05 -7.38442e-07
1.83222e-07 -1.33873e-09 4.80773e-09
1.87499e-07 -1.38667e-09 4.73711e-09
-8.06258e-08 1.17018e-05 -7.4231e-07
-8.15454e-08 1.16998e-05 -7.33154e-07
1.87722e-07 -1.3981e-09 4.64743e-09
1.881e-07 -1.58668e-09 4.9899e-09
1.87973e-07 -1.5745e-09 5.12961e-09
-9.28553e-08 1.34203e-05 -8.0986e-07
1.83548e-07 -1.51767e-09 5.25719e-09
1.88314e-07 -1.86734e-09 5.29113e-09
-1.00953e-07 1.34228e-05 -8.10165e-07
1.80683e-07 -1.48643e-09 5.28311e-09
1.88092e-07 -1.85624e-09 5.39997e-09
-1.01881e-07 1.3425e-05 -8.12704e-07
1.806e-07 -1.47914e-09 5.38355e-09
1.83624e-07 -1.7921e-09 5.6192e-09
-9.90219e-08 1.34272e-05 -8.1663e-07
1.80808e-07 -1.75523e-09 5.70388e-09
1.70317e-07 -1.36658e-09 5.53106e-09
-1.0911e-07 1.34287e-05 -8.31483e-07
1.80897e-07 -1.74597e-09 5.87985e-09
-5.05556e-08 8.91687e-06 -5.74117e-07
-4.23695e-08 7.73207e-06 -4.97306e-07
-5.82827e-08 1.02202e-05 -6.52407e-07
1.80812e-07 -7.08918e-10 4.51822e-09
1.7924e-07 -8.62089e-10 5.19682e-09
1.78365e-07 -1.06296e-09 5.07212e-09
-4.34797e-08 7.73076e-06 -4.99741e-07
-5.0684e-08 8.91532e-06 -5.78737e-07
-6.50746e-08 1.02184e-05 -6.58924e-07
-5.48502e-08 1.02174e-05 -6.43322e-07
-5.80563e-08 1.02156e-05 -6.49339e-07
-5.93926e-08 1.02137e-05 -6.55316e-07
-6.04489e-08 1.02121e-05 -6.53898e-07
1.8333e-07 -7.24074e-10 4.56151e-09
1.81811e-07 -8.83064e-10 5.15001e-09
1.81001e-07 -1.09201e-09 4.91762e-09
-3.90424e-08 7.72979e-06 -4.94424e-07
-4.45833e-08 8.91433e-06 -5.69852e-07
1.8372e-07 -7.27058e-10 4.68083e-09
1.82192e-07 -8.8756e-10 5.22092e-09
1.81306e-07 -1.10129e-09 4.81878e-09
-4.14402e-08 7.72855e-06 -4.97347e-07
-4.75633e-08 8.91281e-06 -5.76041e-07
1.8675e-07 -7.44714e-10 4.89295e-09
1.85202e-07 -9.09522e-10 5.36937e-09
1.84318e-07 -1.12342e-09 4.96764e-09
1.90726e-07 -7.70618e-10 4.98042e-09
1.89257e-07 -9.44583e-10 5.34293e-09
-4.75835e-08 8.91131e-06 -5.78354e-07
-4.01e-08 7.72718e-06 -4.99781e-07
1.88499e-07 -1.16474e-09 4.90625e-09
-4.79613e-08 8.90988e-06 -5.78278e-07
-4.04268e-08 7.72595e-06 -4.99553e-07
1.90996e-07 -7.78401e-10 4.8883e-09
1.89529e-07 -9.54613e-10 5.25638e-09
1.88785e-07 -1.17597e-09 4.82935e-09
-8.02282e-08 1.16981e-05 -7.25742e-07
-9.13405e-08 1.34183e-05 -8.02962e-07
1.91275e-07 -1.43388e-09 4.61953e-09
1.91656e-07 -1.62629e-09 5.00157e-09
1.92085e-07 -1.91493e-09 5.20628e-09
-7.45885e-08 1.16962e-05 -7.22788e-07
-8.74981e-08 1.34161e-05 -7.96692e-07
1.96301e-07 -1.47585e-09 4.66649e-09
1.96765e-07 -1.67425e-09 5.00578e-09
1.9733e-07 -1.97875e-09 5.08693e-09
-7.12475e-08 1.16945e-05 -7.20504e-07
1.95467e-07 -1.4771e-09 4.74727e-09
-7.97698e-08 1.34143e-05 -7.89135e-07
-7.17053e-08 1.16924e-05 -7.26603e-07
1.95872e-07 -1.67823e-09 4.88449e-09
-7.50814e-08 1.3412e-05 -7.86556e-07
1.96435e-07 -1.98562e-09 4.85898e-09
2.03492e-07 -1.54925e-09 4.91865e-09
2.04091e-07 -1.76006e-09 4.96265e-09
2.0493e-07 -2.07891e-09 5.06017e-09
-7.45993e-08 1.16905e-05 -7.28675e-07
-7.7874e-08 1.34098e-05 -7.95969e-07
2.0268e-07 -1.56427e-09 4.73889e-09
2.03184e-07 -1.77052e-09 4.81749e-09
2.04134e-07 -2.08307e-09 5.00908e-09
-6.77779e-08 1.16891e-05 -7.1361e-07
-7.12337e-08 1.3408e-05 -7.81404e-07
2.11128e-07 -2.16248e-09 5.33682e-09
2.09442e-07 -1.62669e-09 4.82411e-09
2.09983e-07 -1.84087e-09 4.91729e-09
-6.27364e-08 1.02003e-05 -6.45916e-07
-7.05274e-08 1.16868e-05 -7.21334e-07
-7.93414e-08 1.34053e-05 -7.92333e-07
-5.84607e-08 1.02106e-05 -6.48119e-07
-3.98885e-08 7.72485e-06 -4.97299e-07
-4.56641e-08 8.90852e-06 -5.75987e-07
-5.52756e-08 1.02054e-05 -6.47971e-07
-6.15593e-08 1.02037e-05 -6.47352e-07
-5.81581e-08 1.02023e-05 -6.42182e-07
1.94632e-07 -8.02612e-10 4.89718e-09
1.93039e-07 -9.85818e-10 5.15505e-09
1.9229e-07 -1.20964e-09 4.76892e-09
-5.46848e-08 1.02088e-05 -6.4883e-07
-5.32034e-08 1.02072e-05 -6.43283e-07
-3.98984e-08 7.72363e-06 -4.98312e-07
-4.48497e-08 8.90705e-06 -5.77751e-07
1.99627e-07 -8.26908e-10 5.01511e-09
1.98075e-07 -1.0167e-09 5.26701e-09
1.97338e-07 -1.24765e-09 4.78717e-09
-3.7609e-08 7.72242e-06 -4.95329e-07
-4.1633e-08 8.90566e-06 -5.73888e-07
1.9874e-07 -8.30865e-10 5.11979e-09
1.97202e-07 -1.02121e-09 5.31756e-09
1.96532e-07 -1.25598e-09 4.73338e-09
-3.69385e-08 7.72112e-06 -4.96436e-07
-4.14838e-08 8.90413e-06 -5.75899e-07
2.06661e-07 -8.73127e-10 5.31616e-09
2.05123e-07 -1.07405e-09 5.45557e-09
2.0456e-07 -1.3199e-09 4.81976e-09
-4.36153e-08 8.90255e-06 -5.76342e-07
-3.7852e-08 7.71971e-06 -4.97623e-07
2.06174e-07 -8.831e-10 5.1636e-09
2.04538e-07 -1.08711e-09 5.26943e-09
2.03933e-07 -1.335e-09 4.62248e-09
-3.62206e-08 7.71863e-06 -4.94162e-07
-3.9773e-08 8.90129e-06 -5.71831e-07
2.1309e-07 -9.17605e-10 5.28738e-09
2.11383e-07 -1.13268e-09 5.27234e-09
2.10758e-07 -1.38711e-09 4.73244e-09
-3.66549e-08 7.71711e-06 -4.95063e-07
-4.00597e-08 8.89953e-06 -5.73113e-07
-1.4198e-08 4.41096e-06 -2.91445e-07
-1.17063e-08 5.5085e-06 -3.61312e-07
-1.86442e-08 6.60899e-06 -4.27966e-07
1.81493e-07 -3.90784e-10 2.49055e-09
1.80242e-07 -4.50287e-10 2.90889e-09
1.80441e-07 -5.96869e-10 3.08254e-09
-2.1601e-08 6.60778e-06 -4.32598e-07
-1.38631e-08 4.41015e-06 -2.93972e-07
-1.14034e-08 5.50747e-06 -3.64981e-07
1.82667e-07 -4.61303e-10 2.86493e-09
1.83852e-07 -3.99848e-10 2.49094e-09
1.82921e-07 -6.12555e-10 2.98379e-09
-2.04791e-08 6.60687e-06 -4.30765e-07
-1.31211e-08 4.40961e-06 -2.91374e-07
-8.85881e-09 5.50676e-06 -3.61928e-07
-2.47542e-08 6.60358e-06 -4.33312e-07
1.83084e-07 -4.66333e-10 2.79799e-09
1.84279e-07 -4.02056e-10 2.47814e-09
1.83351e-07 -6.17279e-10 2.90764e-09
-2.30476e-08 6.60578e-06 -4.33267e-07
-2.56687e-08 6.60453e-06 -4.37283e-07
-1.23215e-08 4.40884e-06 -2.92476e-07
-8.0508e-09 5.50586e-06 -3.63352e-07
-1.25478e-08 4.40804e-06 -2.94675e-07
1.86085e-07 -4.77344e-10 2.79602e-09
1.87323e-07 -4.10754e-10 2.49769e-09
-8.23532e-09 5.50484e-06 -3.66666e-07
1.86349e-07 -6.30552e-10 2.90815e-09
1.8983e-07 -4.9529e-10 2.76604e-09
1.90987e-07 -4.24872e-10 2.4858e-09
1.90154e-07 -6.50125e-10 2.91599e-09
-1.25321e-08 4.40735e-06 -2.95103e-07
-8.52969e-09 5.50405e-06 -3.65578e-07
1.9128e-07 -4.28254e-10 2.46033e-09
1.90085e-07 -5.00025e-10 2.75025e-09
1.90489e-07 -6.58812e-10 2.7984e-09
-4.05524e-09 2.20759e-06 -1.46425e-07
9.2107e-12 1.10372e-06 -7.34867e-08
-7.79629e-09 3.31054e-06 -2.20032e-07
1.81964e-07 -2.45895e-10 2.51237e-09
1.82414e-07 -1.19467e-10 2.4671e-09
1.82304e-07 -1.76795e-10 -7.29063e-10
-3.7458e-09 2.20718e-06 -1.47456e-07
5.76906e-11 1.10352e-06 -7.39296e-08
-1.22717e-14 -7.97917e-12 5.35861e-13
-7.42893e-09 3.30995e-06 -2.21514e-07
1.84355e-07 -2.5196e-10 2.52734e-09
1.84793e-07 -1.2393e-10 2.49603e-09
1.84628e-07 -1.78638e-10 -7.12022e-10
-3.40813e-09 2.20689e-06 -1.46414e-07
-6.89592e-09 3.30952e-06 -2.19937e-07
2.21518e-10 1.10337e-06 -7.35232e-08
1.84795e-07 -2.55264e-10 2.50644e-09
1.85198e-07 -1.26468e-10 2.47177e-09
1.8507e-07 -1.8165e-10 -7.38519e-10
-6.46901e-09 3.30896e-06 -2.20486e-07
-6.80201e-09 3.30834e-06 -2.22408e-07
-6.73815e-09 3.30778e-06 -2.2288e-07
-3.11655e-09 2.20651e-06 -1.46822e-07
2.84381e-10 1.10318e-06 -7.36122e-08
-1.15679e-14 -8.17563e-12 5.46144e-13
-3.38519e-09 2.2061e-06 -1.48132e-07
1.62597e-10 1.10297e-06 -7.42446e-08
-1.0491e-14 -8.28778e-12 5.59345e-13
1.88149e-07 -1.86512e-10 -7.70282e-10
1.87818e-07 -2.62004e-10 2.53168e-09
1.88279e-07 -1.31126e-10 2.48902e-09
1.91711e-07 -1.91634e-10 -7.06793e-10
1.9143e-07 -2.74854e-10 2.53136e-09
1.91856e-07 -1.37401e-10 2.56326e-09
-3.17234e-09 2.20573e-06 -1.48276e-07
1.61319e-10 1.10279e-06 -7.42745e-08
-1.06011e-14 -8.41374e-12 5.67664e-13
1.91731e-07 -2.78193e-10 2.53353e-09
1.92155e-07 -1.40222e-10 2.57334e-09
1.91983e-07 -1.9179e-10 -6.65271e-10
-2.51802e-08 6.60267e-06 -4.31026e-07
-1.23225e-08 4.40674e-06 -2.94568e-07
-8.1672e-09 5.50324e-06 -3.64876e-07
1.93847e-07 -5.18452e-10 2.67166e-09
1.95083e-07 -4.40874e-10 2.47561e-09
1.94194e-07 -6.83074e-10 2.65525e-09
-2.55239e-08 6.60155e-06 -4.30798e-07
-1.18074e-08 4.40592e-06 -2.95662e-07
-7.6199e-09 5.50224e-06 -3.66111e-07
1.98809e-07 -5.37045e-10 2.66213e-09
2.00064e-07 -4.56206e-10 2.48374e-09
1.99213e-07 -7.05497e-10 2.62963e-09
-2.72369e-08 6.59822e-06 -4.29761e-07
-2.75698e-08 6.59718e-06 -4.28312e-07
-2.82918e-08 6.59586e-06 -4.28997e-07
-2.48332e-08 6.60036e-06 -4.30582e-07
-1.1102e-08 4.40511e-06 -2.96502e-07
-6.49149e-09 5.50126e-06 -3.66012e-07
-2.58353e-08 6.5993e-06 -4.29522e-07
1.97963e-07 -5.42373e-10 2.58166e-09
1.99203e-07 -4.58838e-10 2.4301e-09
1.98306e-07 -7.0862e-10 2.60004e-09
-1.16508e-08 4.40443e-06 -2.96585e-07
-6.34231e-09 5.50036e-06 -3.6554e-07
2.06972e-07 -4.82266e-10 2.52108e-09
2.05692e-07 -5.69651e-10 2.69523e-09
2.06146e-07 -7.45919e-10 2.61929e-09
-1.22921e-08 4.4037e-06 -2.97305e-07
-7.16276e-09 5.4995e-06 -3.65069e-07
2.0539e-07 -5.76508e-10 2.61527e-09
2.06646e-07 -4.86942e-10 2.48139e-09
2.05777e-07 -7.56044e-10 2.49057e-09
-1.17884e-08 4.40301e-06 -2.94865e-07
-7.6093e-09 5.4986e-06 -3.63117e-07
2.12273e-07 -5.99732e-10 2.69239e-09
2.13529e-07 -5.05716e-10 2.55686e-09
2.12731e-07 -7.85386e-10 2.57967e-09
-1.1551e-08 4.4022e-06 -2.95207e-07
-7.12743e-09 5.49747e-06 -3.64723e-07
-6.82075e-09 3.30729e-06 -2.22985e-07
-2.95003e-09 2.20543e-06 -1.47937e-07
2.33103e-10 1.10263e-06 -7.42268e-08
1.95627e-07 -2.87154e-10 2.57144e-09
1.96078e-07 -1.44346e-10 2.64481e-09
1.95873e-07 -1.95497e-10 -6.53429e-10
-2.75774e-09 2.20503e-06 -1.4858e-07
-1.19251e-14 -8.66301e-12 5.86193e-13
2.93972e-10 1.10243e-06 -7.45046e-08
-6.89206e-09 3.30672e-06 -2.23555e-07
2.0057e-07 -2.96351e-10 2.63148e-09
2.01025e-07 -1.50718e-10 2.67455e-09
2.00848e-07 -2.02945e-10 -7.07638e-10
-6.47906e-09 3.30611e-06 -2.24144e-07
-2.52238e-09 2.20463e-06 -1.48975e-07
3.53909e-10 1.10223e-06 -7.46799e-08
-3.22135e-15 -8.82073e-12 5.98742e-13
1.99717e-07 -2.98329e-10 2.60569e-09
2.0017e-07 -1.51975e-10 2.6625e-09
1.99982e-07 -2.0316e-10 -7.06887e-10
-7.21966e-09 3.30561e-06 -2.24138e-07
-7.55421e-09 3.30504e-06 -2.24889e-07
-7.72021e-09 3.30451e-06 -2.23543e-07
-7.76773e-09 3.30391e-06 -2.23805e-07