# vtk DataFile Version 3.0
vtk output
ASCII
DATASET POLYDATA
POINTS 16160 float
0.195658 0.814598 -0.0461903
0.185209 0.809686 -0.0459701
0.185327 0.799695 -0.0454265
0.195764 0.804615 -0.0456429
0.174929 0.814749 -0.0455008
0.195854 0.794622 -0.0451242
0.175033 0.804758 -0.0449656
0.164521 0.809832 -0.0449616
0.185393 0.789711 -0.0449888
0.154047 0.814914 -0.0445395
0.185472 0.779715 -0.044521
0.195935 0.784636 -0.0446257
0.175102 0.794772 -0.0445392
0.164601 0.799844 -0.0445932
0.185543 0.769725 -0.0440409
0.196009 0.774646 -0.0440958
0.154201 0.804932 -0.0439813
0.175205 0.784784 -0.0440297
0.164699 0.789856 -0.0440795
0.196083 0.764653 -0.0435386
0.175272 0.774793 -0.0436432
0.164815 0.779859 -0.0435315
0.154295 0.794942 -0.0435763
0.185612 0.759742 -0.0435009
0.175334 0.7648 -0.0431934
0.143741 0.810004 -0.0434562
0.206069 0.809514 -0.0459407
0.206167 0.79953 -0.0453506
0.206244 0.789543 -0.0447838
0.216475 0.814436 -0.046124
0.237232 0.814314 -0.0460649
0.257746 0.814205 -0.0461064
0.278138 0.814112 -0.0458844
0.298422 0.814022 -0.0460164
0.216563 0.804451 -0.0455312
0.226942 0.809377 -0.0457902
0.247554 0.809267 -0.0457815
0.267983 0.80916 -0.0456328
0.288299 0.809067 -0.0456449
0.227013 0.799393 -0.0451722
0.2476 0.79928 -0.0451519
0.237295 0.804331 -0.0454489
0.257794 0.804221 -0.0454499
0.278172 0.804129 -0.0452319
0.298449 0.804039 -0.0453574
0.216644 0.794467 -0.0449784
0.237352 0.794339 -0.0448413
0.257829 0.794227 -0.0448246
0.298474 0.794044 -0.0447479
0.268015 0.799178 -0.0449653
0.288324 0.799084 -0.0449851
0.227088 0.789415 -0.0445539
0.247637 0.7893 -0.0445128
0.288347 0.789102 -0.0443564
0.278196 0.794138 -0.0446097
0.20635 0.779555 -0.0442353
0.216756 0.784486 -0.0443816
0.237429 0.784363 -0.0441853
0.257869 0.78425 -0.0441433
0.278226 0.784157 -0.0439735
0.29849 0.784068 -0.0440827
0.26804 0.789201 -0.0443077
0.206447 0.769569 -0.0436554
0.216853 0.774501 -0.0437643
0.227181 0.779431 -0.0439097
0.2477 0.779316 -0.0438496
0.26808 0.779211 -0.0436545
0.288368 0.779115 -0.0437264
0.227252 0.769447 -0.0432666
0.247748 0.769331 -0.0431853
0.237499 0.774385 -0.0435369
0.257904 0.774269 -0.0435103
0.278246 0.774174 -0.0433622
0.298502 0.774086 -0.0434703
0.318552 0.813941 -0.046464
0.338836 0.813868 -0.0465093
0.379375 0.813767 -0.0465991
0.399516 0.813737 -0.0464298
0.328732 0.808917 -0.0461879
0.348992 0.808852 -0.0460646
0.369184 0.808795 -0.0460475
0.389446 0.808758 -0.0461645
0.359091 0.813821 -0.0463446
0.308369 0.808979 -0.0458729
0.318619 0.803966 -0.0457676
0.338878 0.803888 -0.0458287
0.359113 0.803837 -0.0456737
0.379375 0.803787 -0.0459286
0.399505 0.803757 -0.0457652
0.379377 0.7938 -0.0452768
0.328783 0.79894 -0.0455027
0.349021 0.798878 -0.0453792
0.369193 0.79882 -0.0453735
0.38944 0.798782 -0.0454845
0.30845 0.799005 -0.0451993
0.32881 0.788958 -0.0448579
0.389434 0.788801 -0.0448337
0.318682 0.793982 -0.0451228
0.338912 0.793909 -0.0451666
0.35913 0.793857 -0.0449987
0.399493 0.793777 -0.045106
0.3085 0.789027 -0.0445651
0.31872 0.784004 -0.0444628
0.33894 0.78393 -0.0444925
0.379368 0.783827 -0.0445937
0.399487 0.783798 -0.044435
0.349049 0.788905 -0.0447084
0.369204 0.788847 -0.0447152
0.328867 0.778974 -0.0441849
0.349076 0.778918 -0.0440484
0.369215 0.77886 -0.0440853
0.389425 0.778821 -0.0441786
0.35915 0.783885 -0.0443041
0.308584 0.779049 -0.0439062
0.318785 0.774028 -0.0438167
0.33898 0.773957 -0.0438361
0.359168 0.773902 -0.0436495
0.379363 0.773852 -0.0439521
0.399471 0.773822 -0.0437934
0.308633 0.769067 -0.043275
0.339011 0.763973 -0.0431835
0.379364 0.763868 -0.0433168
0.328921 0.768995 -0.0435163
0.349104 0.768942 -0.0433959
0.369225 0.768885 -0.0434511
0.389415 0.768845 -0.0435471
0.419613 0.813706 -0.0465819
0.439744 0.813692 -0.0466094
0.459866 0.813685 -0.0465271
0.479976 0.813687 -0.0464813
0.409487 0.808726 -0.0461698
0.429685 0.808706 -0.0462298
0.449798 0.808696 -0.0462029
0.469909 0.808692 -0.0461577
0.490008 0.808698 -0.0461624
0.419617 0.803726 -0.0459312
0.439736 0.803713 -0.0459491
0.459846 0.803706 -0.0458768
0.479943 0.803707 -0.0458317
0.419616 0.79374 -0.0452975
0.43973 0.793727 -0.0453056
0.459838 0.793719 -0.0452412
0.500019 0.793729 -0.0452633
0.409506 0.798751 -0.0454906
0.42968 0.79873 -0.0455803
0.449781 0.79872 -0.0455503
0.469881 0.798716 -0.0455082
0.489969 0.79872 -0.0455164
0.429678 0.788751 -0.0449282
0.449774 0.788741 -0.0448971
0.469872 0.788737 -0.0448638
0.489957 0.788742 -0.0448708
0.479911 0.793726 -0.0451922
0.419618 0.783768 -0.0446272
0.43972 0.783755 -0.0446356
0.459815 0.783747 -0.0445884
0.479898 0.783748 -0.0445377
0.40952 0.788779 -0.0448261
0.409535 0.778793 -0.0441804
0.429678 0.778771 -0.0442824
0.449759 0.778761 -0.044253
0.469844 0.778756 -0.0442341
0.489916 0.77876 -0.0442421
0.42968 0.76879 -0.0436387
0.449754 0.76878 -0.0436094
0.469833 0.768774 -0.0436023
0.489899 0.768778 -0.0436113
0.419625 0.773794 -0.0439867
0.439711 0.77378 -0.0439914
0.459792 0.773772 -0.0439609
0.479862 0.773773 -0.0439075
0.500011 0.813696 -0.0465506
0.500012 0.803716 -0.045899
0.41963 0.763812 -0.0433309
0.439709 0.763799 -0.0433334
0.459784 0.76379 -0.0433158
0.479848 0.763791 -0.0432615
0.499901 0.763798 -0.0433421
0.409556 0.768818 -0.0435479
0.520024 0.813687 -0.0464959
0.540133 0.813684 -0.046545
0.560257 0.813691 -0.0466242
0.580388 0.813705 -0.0466012
0.509991 0.808697 -0.0461773
0.53009 0.808691 -0.0461738
0.550202 0.808695 -0.0462172
0.570316 0.808705 -0.0462463
0.590512 0.808726 -0.0461685
0.520056 0.803707 -0.0458398
0.540154 0.803705 -0.0458881
0.560265 0.803713 -0.0459557
0.580384 0.803726 -0.0459413
0.540162 0.79372 -0.045244
0.56027 0.793727 -0.0453063
0.580385 0.79374 -0.0452975
0.510029 0.798721 -0.0455229
0.530118 0.798716 -0.045517
0.550219 0.79872 -0.0455542
0.570321 0.79873 -0.0455845
0.590495 0.798752 -0.0454915
0.510043 0.788742 -0.044871
0.530128 0.788737 -0.0448654
0.550226 0.788742 -0.0448951
0.570322 0.788751 -0.0449268
0.520089 0.793727 -0.0451929
0.500029 0.783757 -0.044603
0.520101 0.783749 -0.0445384
0.540185 0.783747 -0.0445908
0.56028 0.783755 -0.0446362
0.580382 0.783769 -0.0446268
0.59048 0.788779 -0.044827
0.510083 0.778761 -0.0442425
0.530156 0.778757 -0.0442355
0.550241 0.778762 -0.0442513
0.570322 0.778772 -0.0442809
0.590466 0.778794 -0.0441806
0.5101 0.768779 -0.0436119
0.530166 0.768775 -0.0436036
0.550245 0.768781 -0.0436081
0.57032 0.76879 -0.0436372
0.500079 0.77378 -0.0439789
0.520137 0.773773 -0.0439083
0.540208 0.773772 -0.0439629
0.560289 0.773781 -0.043992
0.580375 0.773794 -0.0439858
0.520151 0.763792 -0.0432621
0.540215 0.76379 -0.043318
0.560291 0.7638 -0.0433346
0.58037 0.763813 -0.0433303
0.590444 0.768819 -0.0435474
0.600483 0.813737 -0.0464288
0.620625 0.813767 -0.0465986
0.661164 0.813868 -0.0465095
0.681447 0.813941 -0.0464637
0.610554 0.808758 -0.0461638
0.630816 0.808795 -0.0460471
0.651007 0.808852 -0.0460644
0.671268 0.808917 -0.0461875
0.640909 0.813821 -0.0463443
0.600495 0.803758 -0.0457635
0.620624 0.803787 -0.0459277
0.640887 0.803837 -0.0456733
0.661122 0.803888 -0.045829
0.681381 0.803966 -0.0457663
0.691631 0.808979 -0.0458724
0.620625 0.793801 -0.0452803
0.610562 0.798782 -0.0454874
0.630806 0.79882 -0.0453724
0.650978 0.798878 -0.0453787
0.671217 0.79894 -0.0455
0.610568 0.788802 -0.044836
0.671189 0.788958 -0.0448559
0.600508 0.793777 -0.0451079
0.640869 0.793857 -0.0449969
0.661088 0.793909 -0.0451658
0.681318 0.793982 -0.045121
0.691549 0.799005 -0.0451971
0.600514 0.783798 -0.0444362
0.620634 0.783828 -0.0445962
0.661059 0.783931 -0.0444919
0.681279 0.784004 -0.0444612
0.630795 0.788847 -0.0447132
0.650951 0.788905 -0.0447069
0.6915 0.789027 -0.0445634
0.610576 0.778821 -0.0441799
0.630784 0.77886 -0.0440834
0.650924 0.778917 -0.0440471
0.671133 0.778974 -0.0441831
0.640849 0.783885 -0.0443025
0.600529 0.773822 -0.0437937
0.620638 0.773852 -0.0439537
0.640831 0.773902 -0.0436479
0.66102 0.773957 -0.0438355
0.681214 0.774028 -0.0438155
0.691416 0.779049 -0.0439048
0.620636 0.763868 -0.0433175
0.660989 0.763974 -0.0431828
0.610586 0.768845 -0.0435476
0.630775 0.768885 -0.0434493
0.650896 0.768942 -0.0433945
0.671078 0.768995 -0.0435149
0.691366 0.769067 -0.0432739
0.701578 0.814022 -0.0460161
0.721862 0.814112 -0.0458843
0.742254 0.814205 -0.0461064
0.762768 0.814314 -0.0460651
0.783525 0.814436 -0.0461242
0.711701 0.809067 -0.0456448
0.732017 0.80916 -0.0456328
0.752446 0.809267 -0.0457817
0.773058 0.809377 -0.0457905
0.783437 0.804451 -0.0455314
0.7524 0.79928 -0.0451521
0.701551 0.804039 -0.0453564
0.721828 0.804129 -0.0452314
0.742206 0.804221 -0.0454497
0.762704 0.804331 -0.0454492
0.772987 0.799393 -0.0451725
0.701525 0.794045 -0.0447465
0.742171 0.794227 -0.0448242
0.762648 0.794339 -0.0448416
0.711675 0.799084 -0.0449838
0.731985 0.799178 -0.0449646
0.783356 0.794467 -0.0449786
0.793931 0.809514 -0.0459408
0.793833 0.79953 -0.0453508
0.793755 0.789543 -0.044784
0.711652 0.789102 -0.0443554
0.752362 0.7893 -0.0445131
0.772912 0.789415 -0.0445541
0.721803 0.794139 -0.0446089
0.783264 0.784481 -0.0443764
0.701509 0.784068 -0.0440815
0.721773 0.784157 -0.0439729
0.742131 0.78425 -0.0441431
0.762571 0.784363 -0.0441855
0.73196 0.789201 -0.0443072
0.79365 0.779555 -0.0442356
0.711632 0.779116 -0.0437256
0.73192 0.779212 -0.0436542
0.752299 0.779316 -0.0438499
0.772819 0.779432 -0.04391
0.783147 0.774501 -0.0437645
0.793553 0.769569 -0.0436557
0.752252 0.769331 -0.0431856
0.772748 0.769447 -0.0432669
0.701498 0.774086 -0.0434693
0.721753 0.774175 -0.0433617
0.742096 0.774269 -0.0435103
0.762501 0.774386 -0.0435373
0.804342 0.814598 -0.0461902
0.814791 0.809686 -0.0459704
0.814673 0.799695 -0.0454268
0.804236 0.804615 -0.0456429
0.825071 0.814749 -0.0455011
0.804146 0.794622 -0.0451242
0.824967 0.804758 -0.0449659
0.835479 0.809832 -0.0449622
0.814607 0.789711 -0.0449892
0.845952 0.814914 -0.0445396
0.814528 0.779715 -0.0445214
0.804065 0.784636 -0.0446258
0.824898 0.794772 -0.0445396
0.8354 0.799844 -0.044594
0.814457 0.769725 -0.0440413
[...]
POINT_DATA 16160
VECTORS alpha float
-1.76302e-07 1.88352e-05 -1.30452e-06
1.62394e-06 -1.16192e-08 5.18854e-08
1.59996e-06 -1.10732e-08 5.71367e-08
-1.684e-07 1.88695e-05 -1.30316e-06
-2.07225e-07 1.90155e-05 -1.28662e-06
-1.64457e-07 1.89063e-05 -1.33501e-06
-2.06029e-07 1.90533e-05 -1.29581e-06
1.54716e-06 -1.05504e-08 2.57835e-09
1.56701e-06 -1.04798e-08 6.76956e-08
-2.20842e-07 1.80405e-05 -1.20066e-06
1.53913e-06 -1.00014e-08 7.53677e-08
-1.53477e-07 1.89393e-05 -1.33488e-06
-2.02779e-07 1.90888e-05 -1.33048e-06
1.52608e-06 -1.00816e-08 1.65586e-08
1.50407e-06 -9.4969e-09 8.23672e-08
-1.44016e-07 1.8973e-05 -1.32728e-06
-2.1189e-07 1.80759e-05 -1.20453e-06
-2.01258e-07 1.91233e-05 -1.34531e-06
1.49229e-06 -9.61985e-09 2.30111e-08
-1.36235e-07 1.90077e-05 -1.33129e-06
-1.98167e-07 1.91576e-05 -1.35204e-06
1.46505e-06 -9.26346e-09 2.76943e-08
-2.16333e-07 1.81133e-05 -1.2319e-06
1.47393e-06 -9.11174e-09 8.83749e-08
-1.85204e-07 1.91925e-05 -1.34073e-06
1.47031e-06 -9.85609e-09 -5.45955e-08
1.6835e-06 -1.10011e-08 5.80788e-08
1.65947e-06 -1.06039e-08 6.24846e-08
1.62452e-06 -1.00629e-08 6.74393e-08
-9.51613e-08 1.76918e-05 -1.22222e-06
-6.16642e-08 1.59847e-05 -1.11232e-06
-5.01764e-08 1.40963e-05 -9.71413e-07
-3.25743e-08 1.22872e-05 -8.52328e-07
-1.83854e-08 1.06852e-05 -7.32319e-07
-9.61103e-08 1.77262e-05 -1.21816e-06
1.73233e-06 -9.64921e-09 4.42965e-08
1.77937e-06 -8.6218e-09 3.24425e-08
1.8254e-06 -7.98456e-09 2.45179e-08
1.8694e-06 -6.88469e-09 1.63461e-08
1.70553e-06 -9.25416e-09 4.63127e-08
1.75206e-06 -8.31347e-09 3.37935e-08
-5.92095e-08 1.60162e-05 -1.10793e-06
-4.37395e-08 1.41247e-05 -9.68731e-07
-2.83775e-08 1.23129e-05 -8.46722e-07
-1.5105e-08 1.07083e-05 -7.30851e-07
-9.35002e-08 1.77603e-05 -1.23628e-06
-5.88635e-08 1.60484e-05 -1.10589e-06
-4.21371e-08 1.41533e-05 -9.73762e-07
-1.1734e-08 1.07317e-05 -7.32039e-07
1.79791e-06 -7.78478e-09 2.57913e-08
1.84185e-06 -6.70184e-09 1.81941e-08
1.66667e-06 -8.84278e-09 4.97088e-08
1.71255e-06 -7.8892e-09 3.44513e-08
1.80153e-06 -6.29665e-09 2.04812e-08
-2.46807e-08 1.23382e-05 -8.46761e-07
1.59443e-06 -9.66149e-09 7.23351e-08
-9.45202e-08 1.77926e-05 -1.23825e-06
-5.71945e-08 1.60795e-05 -1.09049e-06
-4.15837e-08 1.41812e-05 -9.72532e-07
-2.35468e-08 1.23646e-05 -8.38086e-07
-9.17222e-09 1.07546e-05 -7.24166e-07
1.7579e-06 -7.45524e-09 2.72523e-08
1.55581e-06 -9.17446e-09 7.49189e-08
-9.5631e-08 1.78256e-05 -1.25104e-06
1.63372e-06 -8.60902e-09 5.05143e-08
1.67961e-06 -7.71329e-09 3.55233e-08
1.72427e-06 -7.22358e-09 2.69364e-08
1.76732e-06 -6.12395e-09 2.11674e-08
1.59444e-06 -8.2901e-09 5.0309e-08
1.63982e-06 -7.48962e-09 3.49168e-08
-5.78104e-08 1.61089e-05 -1.09142e-06
-4.36877e-08 1.42072e-05 -9.77263e-07
-2.35715e-08 1.23887e-05 -8.34396e-07
-8.92282e-09 1.07759e-05 -7.22626e-07
-5.00613e-10 9.30752e-06 -6.541e-07
2.6125e-09 8.11068e-06 -5.76468e-07
-6.81905e-09 5.9991e-06 -4.2541e-07
-6.12585e-09 4.99648e-06 -3.58699e-07
1.95317e-06 -4.84669e-09 1.87645e-08
1.98107e-06 -4.41709e-09 1.46279e-08
2.00825e-06 -3.38219e-09 1.08848e-08
2.03791e-06 -3.01178e-09 1.69384e-08
2.68367e-09 7.02479e-06 -5.05332e-07
1.91639e-06 -5.92797e-09 1.05486e-08
-1.82958e-09 9.32875e-06 -6.51945e-07
2.41274e-09 8.12895e-06 -5.75774e-07
2.42704e-09 7.04114e-06 -5.03722e-07
-6.04656e-09 6.01288e-06 -4.24439e-07
-5.29268e-09 5.00804e-06 -3.585e-07
-6.55445e-09 6.02745e-06 -4.23426e-07
1.92234e-06 -4.70587e-09 1.90143e-08
1.95027e-06 -4.27233e-09 1.48257e-08
1.97754e-06 -3.34981e-09 1.10416e-08
2.00672e-06 -2.99875e-09 1.57402e-08
1.88559e-06 -5.65688e-09 1.17005e-08
1.87971e-06 -4.41655e-09 2.11705e-08
1.96249e-06 -2.82243e-09 1.60019e-08
-2.29066e-09 9.34949e-06 -6.55012e-07
5.84809e-10 8.14744e-06 -5.78146e-07
1.72708e-09 7.05748e-06 -5.06084e-07
-5.15405e-09 5.0199e-06 -3.58858e-07
1.84308e-06 -5.18664e-09 1.45301e-08
-4.74605e-09 9.37073e-06 -6.52943e-07
-1.16912e-09 8.1663e-06 -5.76524e-07
-6.99206e-09 6.04136e-06 -4.23833e-07
-5.36513e-09 5.03192e-06 -3.58525e-07
1.90624e-06 -4.05341e-09 1.6113e-08
1.93315e-06 -3.21846e-09 1.21729e-08
1.84224e-06 -4.3142e-09 2.18781e-08
1.86884e-06 -3.88079e-09 1.60244e-08
1.89536e-06 -3.10335e-09 1.26409e-08
1.92346e-06 -2.80758e-09 1.52207e-08
9.59809e-10 7.07361e-06 -5.071e-07
1.80537e-06 -4.9265e-09 1.49338e-08
-6.90692e-09 9.39003e-06 -6.5311e-07
-3.2485e-09 8.18294e-06 -5.78512e-07
3.79236e-10 7.08886e-06 -5.07221e-07
-7.40669e-09 6.05407e-06 -4.25309e-07
-5.12818e-09 5.04262e-06 -3.59161e-07
1.76232e-06 -4.6323e-09 1.57045e-08
-4.31772e-09 8.20053e-06 -5.7958e-07
-8.10527e-09 6.0674e-06 -4.24826e-07
1.7983e-06 -4.1921e-09 2.28034e-08
1.82451e-06 -3.7111e-09 1.69477e-08
1.85074e-06 -2.97287e-09 1.3576e-08
1.87848e-06 -2.72418e-09 1.53948e-08
3.80209e-09 3.99925e-06 -2.86807e-07
2.50818e-10 3.00031e-06 -2.15871e-07
-1.91586e-10 2.00005e-06 -1.43514e-07
-2.5137e-10 9.99761e-07 -7.18775e-08
2.05953e-06 -2.07231e-09 6.0424e-09
2.07845e-06 -1.07438e-09 1.10884e-08
2.0923e-06 -5.31815e-10 1.10461e-08
2.10087e-06 2.24591e-10 4.76732e-09
2.10466e-06 9.79948e-10 -5.79663e-09
3.60188e-09 4.00856e-06 -2.86195e-07
1.96917e-10 3.00734e-06 -2.15281e-07
-1.22504e-10 2.00476e-06 -1.43036e-07
-1.6503e-10 1.00212e-06 -7.16726e-08
2.78348e-09 4.01835e-06 -2.86204e-07
-1.14502e-10 3.01473e-06 -2.15456e-07
-2.31796e-10 2.00972e-06 -1.42823e-07
1.53869e-16 -7.55475e-13 5.41043e-14
2.02747e-06 -1.92206e-09 5.64042e-09
2.04636e-06 -1.03519e-09 1.14718e-08
2.05991e-06 -5.39175e-10 1.0092e-08
2.06848e-06 1.47033e-10 4.59058e-09
2.07225e-06 8.22946e-10 -6.32941e-09
2.00099e-06 -9.84412e-10 1.18537e-08
2.0141e-06 -5.11078e-10 9.56602e-09
2.02252e-06 1.65762e-10 4.98705e-09
2.02615e-06 7.90996e-10 -6.45456e-09
-1.2654e-10 1.00454e-06 -7.18086e-08
2.12507e-09 4.02771e-06 -2.86624e-07
-4.26394e-10 3.02176e-06 -2.15985e-07
-3.56048e-10 2.01444e-06 -1.42912e-07
-1.34219e-10 1.00698e-06 -7.17117e-08
1.98157e-06 -1.77647e-09 6.61077e-09
1.94255e-06 -1.73552e-09 7.20792e-09
1.96054e-06 -9.81054e-10 1.17629e-08
1.97331e-06 -5.34756e-10 8.91079e-09
1.98161e-06 1.34351e-10 5.1082e-09
1.98518e-06 6.97525e-10 -6.73512e-09
1.91506e-06 -9.60344e-10 1.17835e-08
1.92751e-06 -5.44776e-10 8.37159e-09
1.93566e-06 1.22224e-10 5.29729e-09
1.93915e-06 6.27156e-10 -7.05657e-09
1.35733e-09 4.03633e-06 -2.87197e-07
-7.13177e-10 3.02826e-06 -2.16511e-07
-4.4052e-10 2.0188e-06 -1.43172e-07
-8.36076e-11 1.00916e-06 -7.18404e-08
-7.06746e-17 -9.54116e-13 6.86764e-14
-1.07248e-16 -8.9691e-13 6.42406e-14
8.6778e-10 4.04546e-06 -2.86284e-07
-1.03123e-09 3.03513e-06 -2.16124e-07
-5.13229e-10 2.0234e-06 -1.43066e-07
-5.75251e-11 1.01147e-06 -7.18372e-08
-2.79011e-17 4.35756e-13 -3.1115e-14
1.89658e-06 -1.60185e-09 8.05209e-09
-2.50854e-10 -9.99741e-07 7.18011e-08
-1.59898e-10 -2e-06 1.4342e-07
2.97457e-10 -3.00022e-06 2.15776e-07
3.94948e-09 -3.99913e-06 2.86678e-07
2.10464e-06 -9.91622e-10 5.88757e-09
2.10089e-06 -2.24707e-10 -5.10159e-09
2.09228e-06 5.0961e-10 -1.1096e-08
2.07851e-06 1.06062e-09 -1.15901e-08
2.05954e-06 2.05714e-09 -6.12436e-09
-1.63474e-10 -1.00211e-06 7.15898e-08
-9.32134e-11 -2.00472e-06 1.4292e-07
2.60051e-10 -3.00727e-06 2.15161e-07
3.7491e-09 -4.00846e-06 2.86114e-07
-2.45487e-10 -2.00974e-06 1.42891e-07
-1.85704e-10 -3.01475e-06 2.15491e-07
2.7309e-09 -4.01838e-06 2.86452e-07
2.0723e-06 -8.56004e-10 6.20092e-09
2.06856e-06 -1.70414e-10 -4.94114e-09
2.05999e-06 5.17336e-10 -1.05283e-08
2.04646e-06 1.01906e-09 -1.17674e-08
2.02756e-06 1.89502e-09 -5.82443e-09
2.02618e-06 -8.11133e-10 6.33927e-09
2.02257e-06 -1.82402e-10 -5.17505e-09
2.01417e-06 4.92575e-10 -1.00883e-08
2.00104e-06 9.64642e-10 -1.20933e-08
-1.20744e-10 -1.00455e-06 7.17948e-08
-8.07989e-17 -5.72071e-13 4.08749e-14
-1.26492e-10 -1.00698e-06 7.16987e-08
-3.67277e-10 -2.01446e-06 1.42978e-07
-4.87024e-10 -3.02178e-06 2.15986e-07
2.09886e-09 -4.02773e-06 2.86822e-07
1.98163e-06 1.75546e-09 -6.72273e-09
1.9852e-06 -7.16995e-10 6.66902e-09
1.98165e-06 -1.49459e-10 -5.24304e-09
1.97337e-06 5.16193e-10 -9.36859e-09
1.96059e-06 9.60664e-10 -1.19411e-08
1.9426e-06 1.71581e-09 -7.30332e-09
1.93916e-06 -6.45971e-10 7.0331e-09
1.93569e-06 -1.36847e-10 -5.38715e-09
1.92754e-06 5.26815e-10 -8.76185e-09
1.91509e-06 9.3984e-10 -1.18963e-08
1.20683e-17 3.29871e-13 -2.35609e-14
-7.39965e-11 -1.00917e-06 7.18315e-08
-4.47763e-10 -2.01881e-06 1.43242e-07
-7.67711e-10 -3.02827e-06 2.16483e-07
1.35073e-09 -4.03634e-06 2.87354e-07
-4.69324e-11 -1.01146e-06 7.18401e-08
-5.19896e-10 -2.0234e-06 1.43188e-07
-1.08478e-09 -3.03513e-06 2.16178e-07
8.75847e-10 -4.04546e-06 2.86534e-07
1.89661e-06 1.58553e-09 -8.13757e-09
-6.12422e-09 -4.99647e-06 3.58704e-07
-6.81441e-09 -5.9991e-06 4.25393e-07
2.62349e-09 -8.11066e-06 5.76386e-07
-4.97752e-10 -9.30748e-06 6.54009e-07
2.03791e-06 3.00149e-09 -1.69892e-08
2.00825e-06 3.37648e-09 -1.09048e-08
1.98106e-06 4.41559e-09 -1.46274e-08
1.95318e-06 4.85196e-09 -1.88068e-08
2.68955e-09 -7.02479e-06 5.053e-07
-5.28513e-09 -5.00804e-06 3.58491e-07
-6.03033e-09 -6.01287e-06 4.24424e-07
2.45127e-09 -7.04112e-06 5.03714e-07
2.44983e-09 -8.12888e-06 5.75751e-07
-1.80398e-09 -9.3287e-06 6.51695e-07
1.9164e-06 5.92916e-09 -1.05895e-08
-6.85147e-09 -6.02747e-06 4.23958e-07
2.00682e-06 2.98288e-09 -1.59356e-08
1.97754e-06 3.33333e-09 -1.11162e-08
1.95027e-06 4.26133e-09 -1.48706e-08
1.92236e-06 4.71415e-09 -1.91103e-08
1.96257e-06 2.81088e-09 -1.61432e-08
1.87973e-06 4.42242e-09 -2.12424e-08
-5.31851e-09 -5.01994e-06 3.59226e-07
1.75785e-09 -7.05745e-06 5.0589e-07
6.41036e-10 -8.14734e-06 5.77992e-07
-2.24948e-09 -9.34944e-06 6.54658e-07
1.88561e-06 5.66008e-09 -1.17893e-08
-5.50898e-09 -5.03194e-06 3.58906e-07
-7.25476e-09 -6.04137e-06 4.24361e-07
-1.08445e-09 -8.16618e-06 5.76436e-07
-4.70017e-09 -9.37068e-06 6.52616e-07
1.93315e-06 3.20263e-09 -1.2232e-08
1.90624e-06 4.04236e-09 -1.61615e-08
1.8431e-06 5.18841e-09 -1.46007e-08
1.92353e-06 2.79721e-09 -1.53446e-08
1.89537e-06 3.08953e-09 -1.26906e-08
1.86885e-06 3.87156e-09 -1.60671e-08
1.84227e-06 4.31788e-09 -2.1946e-08
1.00511e-09 -7.07356e-06 5.0698e-07
-5.26654e-09 -5.04264e-06 3.59551e-07
-7.66223e-09 -6.05407e-06 4.25843e-07
3.98197e-10 -7.08882e-06 5.07194e-07
-3.19479e-09 -8.18283e-06 5.78526e-07
-6.86065e-09 -9.38998e-06 6.52796e-07
1.8054e-06 4.92637e-09 -1.50003e-08
-8.35425e-09 -6.06738e-06 4.25373e-07
-4.29519e-09 -8.20042e-06 5.79697e-07
1.87853e-06 2.71616e-09 -1.55056e-08
1.85074e-06 2.9625e-09 -1.36171e-08
1.82451e-06 3.70544e-09 -1.69815e-08
1.79831e-06 4.19448e-09 -2.28623e-08
1.76234e-06 4.6313e-09 -1.57624e-08
-1.83842e-08 -1.06852e-05 7.32251e-07
-3.25708e-08 -1.22871e-05 8.52263e-07
-5.01705e-08 -1.40962e-05 9.71359e-07
-6.16605e-08 -1.59846e-05 1.11226e-06
-9.51564e-08 -1.76918e-05 1.22216e-06
1.86941e-06 6.88174e-09 -1.6367e-08
1.8254e-06 7.97768e-09 -2.45227e-08
1.77937e-06 8.61908e-09 -3.24416e-08
1.73233e-06 9.64655e-09 -4.42913e-08
-9.61049e-08 -1.77261e-05 1.2181e-06
1.75207e-06 8.31067e-09 -3.37935e-08
-1.50861e-08 -1.07083e-05 7.30634e-07
-2.83649e-08 -1.23128e-05 8.46516e-07
-4.3737e-08 -1.41247e-05 9.68554e-07
-5.92057e-08 -1.60161e-05 1.10787e-06
1.70553e-06 9.25138e-09 -4.63082e-08
-1.16987e-08 -1.07317e-05 7.31694e-07
-4.21491e-08 -1.41532e-05 9.73529e-07
-5.88571e-08 -1.60484e-05 1.10581e-06
1.84187e-06 6.70011e-09 -1.82601e-08
1.79793e-06 7.77819e-09 -2.58422e-08
-9.34917e-08 -1.77603e-05 1.23621e-06
1.6835e-06 1.09981e-08 -5.80737e-08
1.65948e-06 1.06008e-08 -6.24805e-08
1.62453e-06 1.00597e-08 -6.74351e-08
1.80154e-06 6.29448e-09 -2.05339e-08
1.71255e-06 7.88627e-09 -3.44504e-08
1.66667e-06 8.83986e-09 -4.97041e-08
-2.46644e-08 -1.23382e-05 8.46459e-07
-9.43559e-08 -1.77936e-05 1.23594e-06
-9.13268e-09 -1.07546e-05 7.23859e-07
-2.35244e-08 -1.23646e-05 8.37825e-07
-4.15875e-08 -1.41812e-05 9.72343e-07
-5.71815e-08 -1.60794e-05 1.09043e-06
1.75791e-06 7.44915e-09 -2.72938e-08
1.59444e-06 9.65808e-09 -7.23326e-08
1.76735e-06 6.12027e-09 -2.12159e-08
1.72429e-06 7.21628e-09 -2.69735e-08
1.67963e-06 7.70994e-09 -3.55236e-08
1.63373e-06 8.60575e-09 -5.05114e-08
-9.56127e-08 -1.78256e-05 1.25097e-06
1.55582e-06 9.17091e-09 -7.49164e-08
1.63983e-06 7.48608e-09 -3.49163e-08
1.59445e-06 8.28656e-09 -5.03061e-08
-8.88486e-09 -1.07759e-05 7.22344e-07
-2.35516e-08 -1.23886e-05 8.34168e-07
-4.36948e-08 -1.42072e-05 9.77114e-07
-5.7797e-08 -1.61088e-05 1.09135e-06
-1.76323e-07 -1.88352e-05 1.30442e-06
1.62396e-06 1.16217e-08 -5.18911e-08
1.59998e-06 1.10757e-08 -5.7149e-08
-1.68391e-07 -1.88694e-05 1.30308e-06
-2.07251e-07 -1.90154e-05 1.28654e-06
-1.64598e-07 -1.89063e-05 1.33489e-06
-2.06025e-07 -1.90532e-05 1.29574e-06
1.54716e-06 1.05517e-08 -2.59302e-09
1.56702e-06 1.04823e-08 -6.77054e-08
-2.20927e-07 -1.80404e-05 1.2004e-06
1.53916e-06 1.00038e-08 -7.53765e-08
-1.53586e-07 -1.89392e-05 1.33477e-06
-2.02868e-07 -1.90887e-05 1.33041e-06
1.52608e-06 1.00829e-08 -1.65758e-08
1.50409e-06 9.49922e-09 -8.23739e-08
-1.44103e-07 -1.89729e-05 1.32716e-06
-2.01313e-07 -1.91232e-05 1.34524e-06
1.49229e-06 9.62123e-09 -2.30255e-08
-2.11872e-07 -1.80759e-05 1.20437e-06
-1.363e-07 -1.90076e-05 1.33118e-06
-1.982e-07 -1.91575e-05 1.35198e-06
1.46505e-06 9.26515e-09 -2.77092e-08
-2.16871e-07 -1.81132e-05 1.2316e-06
1.47395e-06 9.11388e-09 -8.83788e-08
-1.85214e-07 -1.91924e-05 1.34067e-06
1.47039e-06 9.85776e-09 5.4591e-08
-1.8926e-07 1.44399e-05 -8.22292e-07
-1.53641e-07 1.43247e-05 -8.17351e-07
-1.48416e-07 1.42668e-05 -8.42853e-07
2.38027e-06 -1.53303e-08 -6.8004e-07
-1.40884e-07 1.42058e-05 -8.67878e-07
2.43293e-06 -1.56279e-08 -7.00395e-07
-1.28051e-07 1.41426e-05 -8.80356e-07
2.55726e-06 -1.6568e-08 -7.4158e-07
-1.17275e-07 1.40743e-05 -8.66145e-07
2.62605e-06 -1.71021e-08 -7.62361e-07
2.69069e-06 -1.7029e-08 -7.89208e-07
2.7586e-06 -1.6869e-08 -8.12483e-07
-8.95618e-08 1.38671e-05 -8.01852e-07
-7.5206e-08 1.39383e-05 -7.97039e-07
-8.49483e-08 1.4006e-05 -8.3713e-07
2.44492e-06 -1.40112e-08 -1.05093e-06
-1.64987e-07 1.43808e-05 -8.1458e-07
2.38696e-06 -1.44605e-08 -1.01642e-06
2.83199e-06 -1.64321e-08 -8.38682e-07
2.50585e-06 -1.32888e-08 -1.08902e-06
-8.60109e-08 1.37935e-05 -8.40634e-07
2.90578e-06 -1.59644e-08 -8.67303e-07
2.57098e-06 -1.27429e-08 -1.12608e-06
-7.85905e-08 1.37185e-05 -8.60791e-07
2.98593e-06 -1.51785e-08 -8.98833e-07
2.64423e-06 -1.24999e-08 -1.1637e-06
-6.72204e-08 1.36428e-05 -8.71298e-07
3.07328e-06 -1.5066e-08 -9.30741e-07
2.72359e-06 -1.16809e-08 -1.20165e-06
-6.8005e-08 1.3567e-05 -8.76581e-07
2.81166e-06 -1.00714e-08 -1.23894e-06
-7.01399e-08 1.34861e-05 -8.95423e-07
2.8929e-06 -8.72316e-09 -1.286e-06
-4.0181e-08 1.34053e-05 -8.64149e-07
2.98505e-06 -7.81597e-09 -1.33781e-06
-1.53287e-08 1.33204e-05 -8.20217e-07
3.07714e-06 -6.47069e-09 -1.39368e-06
3.18065e-06 -5.44105e-09 -1.45805e-06
-1.58442e-08 1.32327e-05 -7.95093e-07
3.17404e-06 -1.41952e-08 -9.62102e-07
3.39163e-06 -1.05068e-08 -1.03498e-06
3.50436e-06 -7.3981e-09 -1.08372e-06
3.63278e-06 -3.89686e-09 -1.13809e-06
3.27882e-06 -1.27636e-08 -9.92397e-07
-3.62042e-08 1.31274e-05 -8.52756e-07
-2.24807e-07 1.90678e-05 -1.1787e-06
-2.10194e-07 1.91803e-05 -1.14323e-06
-1.95603e-07 1.9282e-05 -1.10155e-06
-1.99844e-07 1.44961e-05 -8.34769e-07
2.33085e-06 -1.49909e-08 -9.82761e-07
-2.05911e-07 1.93857e-05 -1.05379e-06
-2.08834e-07 1.4551e-05 -8.54995e-07
2.27566e-06 -1.47758e-08 -9.50297e-07
1.50171e-06 -1.02334e-08 -6.14932e-08
1.52283e-06 -1.06828e-08 -6.26468e-08
1.61164e-06 -1.15476e-08 -6.70682e-08
1.65355e-06 -1.21124e-08 -6.57575e-08
1.70254e-06 -1.25968e-08 -5.49096e-08
-2.10378e-07 1.6028e-05 -1.05235e-06
-1.96954e-07 1.60714e-05 -1.0475e-06
-1.89339e-07 1.61089e-05 -1.04288e-06
-1.74153e-07 1.6141e-05 -1.05475e-06
1.59722e-06 -1.10435e-08 -1.56228e-07
-1.89979e-07 1.61782e-05 -1.05859e-06
1.54841e-06 -1.04969e-08 -1.66326e-07
1.65794e-06 -1.21839e-08 5.20659e-08
1.5792e-06 -1.10965e-08 -2.00333e-09
-1.48269e-07 1.8798e-05 -1.27133e-06
-1.72418e-07 1.89759e-05 -1.25311e-06
-1.95701e-07 1.80023e-05 -1.18425e-06
-1.58144e-07 1.79249e-05 -1.15338e-06
-1.67893e-07 1.7884e-05 -1.16746e-06
-1.74756e-07 1.7839e-05 -1.16988e-06
1.67832e-06 -1.2599e-08 5.63721e-08
1.59794e-06 -1.15187e-08 -6.5066e-09
-1.75843e-07 1.79652e-05 -1.158e-06
-1.35692e-07 1.87603e-05 -1.28239e-06
-1.58228e-07 1.89374e-05 -1.25369e-06
1.77977e-06 -1.35896e-08 6.52932e-08
1.69302e-06 -1.23391e-08 -2.5921e-09
-1.32059e-07 1.8723e-05 -1.28815e-06
-1.50279e-07 1.88972e-05 -1.24397e-06
1.82526e-06 -1.41366e-08 7.44166e-08
1.73545e-06 -1.27489e-08 2.75218e-09
1.78165e-06 -1.31897e-08 8.72776e-09
-1.37163e-07 1.86833e-05 -1.30077e-06
-1.5489e-07 1.88559e-05 -1.25041e-06
1.87307e-06 -1.47352e-08 8.20701e-08
-1.37926e-07 1.86386e-05 -1.29028e-06
-1.46041e-07 1.88094e-05 -1.24543e-06
1.75013e-06 -1.31277e-08 -4.96191e-08
1.63987e-06 -1.16181e-08 -1.54819e-07
-2.08493e-07 1.59868e-05 -1.06171e-06
1.7958e-06 -1.36479e-08 -5.3274e-08
1.68389e-06 -1.22536e-08 -1.5573e-07
-2.11115e-07 1.5943e-05 -1.04407e-06
1.72922e-06 -1.27382e-08 -1.51469e-07
1.84553e-06 -1.41812e-08 -4.55235e-08
-2.18118e-07 1.59009e-05 -1.05107e-06
1.77111e-06 -1.31448e-08 -1.595e-07
1.89815e-06 -1.46954e-08 -3.90003e-08
-2.26628e-07 1.58577e-05 -1.067e-06
1.81132e-06 -1.34379e-08 -1.69416e-07
1.94303e-06 -1.50722e-08 -4.33908e-08
-2.31278e-07 1.58132e-05 -1.09421e-06
-2.20307e-07 1.42664e-05 -8.41045e-07
-2.04445e-07 1.4311e-05 -8.00221e-07
-2.27102e-07 1.43553e-05 -8.58186e-07
1.82973e-06 -1.37698e-08 1.37853e-08
1.92454e-06 -1.52544e-08 9.40734e-08
-1.8058e-07 1.77945e-05 -1.18303e-06
-1.44925e-07 1.87647e-05 -1.23833e-06
-1.29216e-07 1.8593e-05 -1.28277e-06
-1.66402e-07 1.77486e-05 -1.16473e-06
-1.61881e-07 1.7701e-05 -1.14271e-06
-1.64822e-07 1.76541e-05 -1.14174e-06
-1.75567e-07 1.76074e-05 -1.16378e-06
1.87655e-06 -1.43411e-08 1.35758e-08
1.97622e-06 -1.58516e-08 1.01628e-07
-1.45437e-07 1.8719e-05 -1.22903e-06
-1.25044e-07 1.85473e-05 -1.25008e-06
1.92669e-06 -1.48339e-08 2.07772e-08
2.02853e-06 -1.6499e-08 1.05888e-07
-1.48089e-07 1.86698e-05 -1.22278e-06
-1.24127e-07 1.84999e-05 -1.23567e-06
1.98047e-06 -1.54379e-08 2.86285e-08
2.03401e-06 -1.59563e-08 3.16105e-08
2.08458e-06 -1.72464e-08 1.13621e-07
-1.47608e-07 1.86215e-05 -1.21607e-06
-1.21713e-07 1.84515e-05 -1.24054e-06
2.13951e-06 -1.79204e-08 1.18954e-07
-1.50775e-07 1.8571e-05 -1.22914e-06
-1.28895e-07 1.84034e-05 -1.24061e-06
1.71634e-06 -1.15779e-08 5.42413e-08
1.76701e-06 -1.01492e-08 4.10613e-08
1.81412e-06 -8.89732e-09 3.02824e-08
-9.23373e-08 1.76565e-05 -1.2143e-06
-5.86663e-08 1.59516e-05 -1.11351e-06
1.73515e-06 -1.19814e-08 5.24094e-08
1.83251e-06 -9.12787e-09 2.73251e-08
1.78562e-06 -1.05925e-08 3.89786e-08
-9.42529e-08 1.76211e-05 -1.20747e-06
-5.64443e-08 1.59178e-05 -1.10033e-06
1.83915e-06 -1.28901e-08 5.50741e-08
1.88508e-06 -1.34528e-08 6.08411e-08
1.93446e-06 -1.39752e-08 6.65778e-08
1.94237e-06 -9.71108e-09 2.60945e-08
1.89404e-06 -1.14976e-08 3.84539e-08
-8.70495e-08 1.75835e-05 -1.20014e-06
-4.85329e-08 1.58822e-05 -1.09184e-06
1.94346e-06 -1.21375e-08 3.98259e-08
1.98989e-06 -1.00818e-08 2.62464e-08
-8.18023e-08 1.7545e-05 -1.18926e-06
-4.11174e-08 1.58461e-05 -1.0777e-06
1.99523e-06 -1.26007e-08 4.18642e-08
2.04163e-06 -1.04196e-08 2.70632e-08
-7.53607e-08 1.75038e-05 -1.19115e-06
-3.25618e-08 1.58063e-05 -1.07784e-06
1.86129e-06 -8.24762e-09 2.37117e-08
1.90527e-06 -7.11758e-09 1.46312e-08
-4.97689e-08 1.40662e-05 -9.7445e-07
-1.72421e-08 1.06608e-05 -7.31255e-07
-2.77729e-08 1.22589e-05 -8.61039e-07
1.88008e-06 -8.50641e-09 2.32899e-08
1.92361e-06 -7.38679e-09 1.33211e-08
-4.85433e-08 1.40354e-05 -9.68495e-07
-2.58834e-08 1.22316e-05 -8.57804e-07
-1.28234e-08 1.0635e-05 -7.33001e-07
1.99369e-06 -9.03914e-09 2.37653e-08
2.03962e-06 -7.88401e-09 1.21852e-08
-4.7457e-08 1.40044e-05 -9.69684e-07
-2.34044e-08 1.22039e-05 -8.56972e-07
-1.06043e-08 1.06098e-05 -7.33807e-07
-4.32441e-08 1.39705e-05 -9.78995e-07
-4.15909e-08 1.3935e-05 -9.83154e-07
2.04318e-06 -9.40431e-09 2.45634e-08
2.08928e-06 -8.1881e-09 1.20072e-08
-2.03594e-08 1.21745e-05 -8.57724e-07
-7.68407e-09 1.05833e-05 -7.36437e-07